<VTKFile type="UnstructuredGrid" version="0.1" byte_order="LittleEndian">
  <UnstructuredGrid>
    <Piece NumberOfPoints="2000" NumberOfCells="0">
      <Points>
        <DataArray name="Position" type="Float32" NumberOfComponents="3" format="ascii">
-0.000264 -0.000161 0.000000 -0.000264 0.999893 0.000000 -0.000264 1.999893 0.000000 -0.000264 2.999893 0.000000 -0.000264 3.999894 0.000000 -0.000338 4.999894 0.000000 -0.000323 5.999894 0.000000 -0.000359 6.999894 0.000000 -0.000255 7.999895 0.000000 -0.000358 9.000000 0.000000 -0.000251 10.000001 0.000000 -0.000250 11.000105 0.000000 -0.000252 12.000106 0.000000 -0.000252 13.000106 0.000000 -0.000252 14.000106 0.000000 -0.000246 15.000106 0.000000 -0.000246 16.000107 0.000000 -0.000246 17.000107 0.000000 -0.000246 18.000107 0.000000 -0.000246 19.000161 0.000000 0.999890 -0.000161 0.000000 0.999890 0.999893 0.000000 0.999890 1.999893 0.000000 0.999890 2.999893 0.000000 0.999766 3.999894 0.000000 0.999722 4.999894 0.000000 0.999776 5.999894 0.000000 0.999791 6.999894 0.000000 0.999885 7.999895 0.000000 0.999792 9.000000 0.000000 0.999883 10.000001 0.000000 0.999883 11.000105 0.000000 0.999884 12.000106 0.000000 0.999884 13.000106 0.000000 0.999884 14.000106 0.000000 0.999881 15.000106 0.000000 0.999881 16.000107 0.000000 0.999881 17.000107 0.000000 0.999881 18.000107 0.000000 0.999881 19.000161 0.000000 1.999893 -0.000161 0.000000 1.999893 0.999893 0.000000 1.999893 1.999893 0.000000 1.999893 2.999893 0.000000 1.999889 3.999894 0.000000 1.999783 4.999894 0.000000 1.999792 5.999894 0.000000 1.999795 6.999894 0.000000 1.999893 7.999895 0.000000 1.999795 9.000000 0.000000 1.999893 10.000001 0.000000 1.999893 11.000105 0.000000 1.999893 12.000106 0.000000 1.999893 13.000106 0.000000 1.999893 14.000106 0.000000 1.999893 15.000106 0.000000 1.999893 16.000107 0.000000 1.999893 17.000107 0.000000 1.999893 18.000107 0.000000 1.999893 19.000161 0.000000 2.999893 -0.000161 0.000000 2.999893 0.999893 0.000000 2.999893 1.999893 0.000000 2.999893 2.999893 0.000000 2.999892 3.999894 0.000000 2.999791 4.999894 0.000000 2.999793 5.999894 0.000000 2.999799 6.999894 0.000000 2.999893 7.999895 0.000000 2.999799 9.000000 0.000000 2.999893 10.000001 0.000000 2.999893 11.000105 0.000000 2.999893 12.000106 0.000000 2.999893 13.000106 0.000000 2.999893 14.000106 0.000000 2.999893 15.000106 0.000000 2.999893 16.000107 0.000000 2.999893 17.000107 0.000000 2.999893 18.000107 0.000000 2.999893 19.000161 0.000000 3.999893 -0.000161 0.000000 3.999893 0.999893 0.000000 3.999893 1.999893 0.000000 3.999893 2.999893 0.000000 3.999892 3.999894 0.000000 3.999793 4.999894 0.000000 3.999798 5.999894 0.000000 3.999887 6.999894 0.000000 3.999893 7.999895 0.000000 3.999887 9.000000 0.000000 3.999893 10.000001 0.000000 3.999893 11.000105 0.000000 3.999893 12.000106 0.000000 3.999893 13.000106 0.000000 3.999893 14.000106 0.000000 3.999893 15.000106 0.000000 3.999893 16.000107 0.000000 3.999893 17.000107 0.000000 3.999893 18.000107 0.000000 3.999893 19.000161 0.000000 4.999894 -0.000494 0.000000 4.999894 0.999668 0.000000 4.999894 1.999689 0.000000 4.999894 2.999695 0.000000 4.999893 3.999777 0.000000 4.999794 4.999789 0.000000 4.999829 5.999798 0.000000 4.999892 6.999810 0.000000 4.999893 7.999894 0.000000 4.999892 8.999894 0.000000 4.999893 9.999894 0.000000 4.999893 11.000001 0.000000 4.999894 12.000106 0.000000 4.999894 13.000106 0.000000 4.999894 14.000106 0.000000 4.999894 15.000106 0.000000 4.999894 16.000107 0.000000 4.999894 17.000107 0.000000 4.999894 18.000107 0.000000 4.999894 19.000161 0.000000 5.999895 -0.000257 0.000000 5.999895 0.999826 0.000000 5.999895 1.999886 0.000000 5.999895 2.999893 0.000000 5.999895 3.999893 0.000000 5.999800 4.999893 0.000000 5.999834 5.999894 0.000000 5.999892 6.999961 0.000000 5.999894 7.999999 0.000000 5.999892 9.000000 0.000000 5.999894 10.000001 0.000000 5.999893 11.000105 0.000000 5.999894 12.000106 0.000000 5.999894 13.000106 0.000000 5.999894 14.000106 0.000000 5.999894 15.000106 0.000000 5.999894 16.000107 0.000000 5.999894 17.000107 0.000000 5.999894 18.000107 0.000000 5.999894 19.000161 0.000000 6.999895 -0.000161 0.000000 6.999895 0.999893 0.000000 6.999895 1.999893 0.000000 6.999895 2.999893 0.000000 6.999895 3.999894 0.000000 6.999885 4.999894 0.000000 6.999885 5.999894 0.000000 6.999893 6.999895 0.000000 6.999894 7.999895 0.000000 6.999893 8.999999 0.000000 6.999894 10.000001 0.000000 6.999894 11.000105 0.000000 6.999894 12.000106 0.000000 6.999894 13.000106 0.000000 6.999894 14.000106 0.000000 6.999894 15.000106 0.000000 6.999894 16.000107 0.000000 6.999894 17.000107 0.000000 6.999894 18.000107 0.000000 6.999894 19.000161 0.000000 7.999895 -0.000161 0.000000 7.999895 0.999893 0.000000 7.999895 1.999893 0.000000 7.999895 2.999893 0.000000 7.999896 3.999894 0.000000 7.999891 4.999894 0.000000 7.999891 5.999894 0.000000 7.999894 6.999894 0.000000 7.999895 7.999895 0.000000 7.999894 8.999999 0.000000 7.999894 10.000001 0.000000 7.999894 11.000105 0.000000 7.999894 12.000106 0.000000 7.999894 13.000106 0.000000 7.999894 14.000106 0.000000 7.999894 15.000106 0.000000 7.999894 16.000107 0.000000 7.999894 17.000107 0.000000 7.999894 18.000107 0.000000 7.999894 19.000161 0.000000 8.999895 -0.000161 0.000000 8.999895 0.999893 0.000000 8.999895 1.999893 0.000000 8.999895 2.999893 0.000000 8.999896 3.999894 0.000000 8.999892 4.999894 0.000000 8.999893 5.999894 0.000000 8.999895 6.999894 0.000000 8.999895 7.999895 0.000000 8.999895 9.000000 0.000000 8.999895 10.000001 0.000000 8.999895 11.000105 0.000000 8.999895 12.000106 0.000000 8.999895 13.000106 0.000000 8.999895 14.000106 0.000000 8.999895 15.000106 0.000000 8.999895 16.000107 0.000000 8.999895 17.000107 0.000000 8.999895 18.000107 0.000000 8.999895 19.000161 0.000000 9.999896 -0.000161 0.000000 9.999896 0.999893 0.000000 9.999896 1.999893 0.000000 9.999896 2.999893 0.000000 9.999896 3.999894 0.000000 9.999894 4.999894 0.000000 9.999894 5.999894 0.000000 9.999896 6.999894 0.000000 9.999895 7.999895 0.000000 9.999895 9.000000 0.000000 9.999895 10.000001 0.000000 9.999895 11.000105 0.000000 9.999895 12.000106 0.000000 9.999895 13.000106 0.000000 9.999895 14.000106 0.000000 9.999895 15.000106 0.000000 9.999895 16.000107 0.000000 9.999895 17.000107 0.000000 9.999895 18.000107 0.000000 9.999895 19.000161 0.000000 10.999896 -0.000161 0.000000 10.999896 0.999893 0.000000 10.999896 1.999893 0.000000 10.999896 2.999893 0.000000 10.999897 3.999894 0.000000 10.999899 4.999894 0.000000 10.999899 5.999894 0.000000 10.999897 6.999894 0.000000 10.999896 7.999895 0.000000 10.999897 9.000000 0.000000 10.999895 10.000001 0.000000 10.999895 11.000105 0.000000 10.999895 12.000106 0.000000 10.999895 13.000106 0.000000 10.999895 14.000106 0.000000 10.999895 15.000106 0.000000 10.999895 16.000107 0.000000 10.999895 17.000107 0.000000 10.999895 18.000107 0.000000 10.999895 19.000161 0.000000 11.999896 -0.000161 0.000000 11.999896 0.999893 0.000000 11.999896 1.999893 0.000000 11.999896 2.999893 0.000000 11.999897 3.999894 0.000000 11.999899 4.999894 0.000000 11.999899 5.999894 0.000000 11.999897 6.999894 0.000000 11.999896 7.999895 0.000000 11.999897 9.000000 0.000000 11.999896 10.000001 0.000000 11.999896 11.000105 0.000000 11.999896 12.000106 0.000000 11.999896 13.000106 0.000000 11.999896 14.000106 0.000000 11.999896 15.000106 0.000000 11.999896 16.000107 0.000000 11.999896 17.000107 0.000000 11.999896 18.000107 0.000000 11.999896 19.000161 0.000000 12.999897 -0.000161 0.000000 12.999897 0.999893 0.000000 12.999897 1.999893 0.000000 12.999897 2.999893 0.000000 12.999897 3.999894 0.000000 12.999899 4.999894 0.000000 12.999899 5.999894 0.000000 12.999898 6.999894 0.000000 12.999897 7.999895 0.000000 12.999898 9.000000 0.000000 12.999896 10.000001 0.000000 12.999896 11.000105 0.000000 12.999896 12.000106 0.000000 12.999896 13.000106 0.000000 12.999896 14.000106 0.000000 12.999896 15.000106 0.000000 12.999896 16.000107 0.000000 12.999896 17.000107 0.000000 12.999896 18.000107 0.000000 12.999896 19.000161 0.000000 13.999897 -0.000161 0.000000 13.999897 0.999893 0.000000 13.999897 1.999893 0.000000 13.999897 2.999893 0.000000 13.999897 3.999894 0.000000 13.999899 4.999894 0.000000 13.999899 5.999894 0.000000 13.999898 6.999894 0.000000 13.999897 7.999895 0.000000 13.999898 9.000000 0.000000 13.999896 10.000001 0.000000 13.999896 11.000105 0.000000 13.999896 12.000106 0.000000 13.999896 13.000106 0.000000 13.999896 14.000106 0.000000 13.999896 15.000106 0.000000 13.999896 16.000107 0.000000 13.999896 17.000107 0.000000 13.999896 18.000107 0.000000 13.999896 19.000161 0.000000 14.999897 -0.000161 0.000000 14.999897 0.999893 0.000000 14.999897 1.999893 0.000000 14.999897 2.999893 0.000000 14.999898 3.999894 0.000000 14.999900 4.999894 0.000000 14.999900 5.999894 0.000000 14.999898 6.999894 0.000000 14.999897 7.999895 0.000000 14.999898 9.000000 0.000000 14.999897 10.000001 0.000000 14.999897 11.000105 0.000000 14.999897 12.000106 0.000000 14.999897 13.000106 0.000000 14.999897 14.000106 0.000000 14.999897 15.000106 0.000000 14.999897 16.000107 0.000000 14.999897 17.000107 0.000000 14.999897 18.000107 0.000000 14.999897 19.000161 0.000000 15.999897 -0.000161 0.000000 15.999897 0.999893 0.000000 15.999897 1.999893 0.000000 15.999897 2.999893 0.000000 15.999898 3.999894 0.000000 15.999900 4.999894 0.000000 15.999900 5.999894 0.000000 15.999899 6.999894 0.000000 15.999897 7.999895 0.000000 15.999899 9.000000 0.000000 15.999898 10.000001 0.000000 15.999898 11.000105 0.000000 15.999898 12.000106 0.000000 15.999898 13.000106 0.000000 15.999898 14.000106 0.000000 15.999897 15.000106 0.000000 15.999897 16.000107 0.000000 15.999897 17.000107 0.000000 15.999897 18.000107 0.000000 15.999897 19.000161 0.000000 16.999898 -0.000161 0.000000 16.999898 0.999893 0.000000 16.999898 1.999893 0.000000 16.999898 2.999893 0.000000 16.999898 3.999894 0.000000 16.999900 4.999894 0.000000 16.999900 5.999894 0.000000 16.999899 6.999894 0.000000 16.999898 7.999895
[...]
      <PointData Vectors="vector">
        <DataArray type="Float32" Name="Velocity" NumberOfComponents="3" format="ascii">
-0.015000 -0.009000 0.000000 -0.015000 -0.006000 0.000000 -0.015000 -0.006000 0.000000 -0.015000 -0.006000 0.000000 -0.015000 -0.006000 0.000000 -0.021000 -0.006000 0.000000 -0.021000 -0.006000 0.000000 -0.021000 -0.006000 0.000000 -0.015000 -0.006000 0.000000 -0.021000 0.000000 0.000000 -0.015000 0.000000 0.000000 -0.015000 0.006000 0.000000 -0.015000 0.006000 0.000000 -0.015000 0.006000 0.000000 -0.015000 0.006000 0.000000 -0.015000 0.006000 0.000000 -0.015000 0.006000 0.000000 -0.015000 0.006000 0.000000 -0.015000 0.006000 0.000000 -0.015000 0.009000 0.000000 -0.006000 -0.009000 0.000000 -0.006000 -0.006000 0.000000 -0.006000 -0.006000 0.000000 -0.006000 -0.006000 0.000000 -0.018000 -0.006000 0.000000 -0.018000 -0.006000 0.000000 -0.012000 -0.006000 0.000000 -0.012000 -0.006000 0.000000 -0.006000 -0.006000 0.000000 -0.012000 0.000000 0.000000 -0.006000 0.000000 0.000000 -0.006000 0.006000 0.000000 -0.006000 0.006000 0.000000 -0.006000 0.006000 0.000000 -0.006000 0.006000 0.000000 -0.006000 0.006000 0.000000 -0.006000 0.006000 0.000000 -0.006000 0.006000 0.000000 -0.006000 0.006000 0.000000 -0.006000 0.009000 0.000000 -0.006000 -0.009000 0.000000 -0.006000 -0.006000 0.000000 -0.006000 -0.006000 0.000000 -0.006000 -0.006000 0.000000 -0.006000 -0.006000 0.000000 -0.012000 -0.006000 0.000000 -0.018000 -0.006000 0.000000 -0.012000 -0.006000 0.000000 -0.006000 -0.006000 0.000000 -0.012000 0.000000 0.000000 -0.006000 0.000000 0.000000 -0.006000 0.006000 0.000000 -0.006000 0.006000 0.000000 -0.006000 0.006000 0.000000 -0.006000 0.006000 0.000000 -0.006000 0.006000 0.000000 -0.006000 0.006000 0.000000 -0.006000 0.006000 0.000000 -0.006000 0.006000 0.000000 -0.006000 0.009000 0.000000 -0.006000 -0.009000 0.000000 -0.006000 -0.006000 0.000000 -0.006000 -0.006000 0.000000 -0.006000 -0.006000 0.000000 -0.006000 -0.006000 0.000000 -0.012000 -0.006000 0.000000 -0.012000 -0.006000 0.000000 -0.012000 -0.006000 0.000000 -0.006000 -0.006000 0.000000 -0.012000 -0.000000 0.000000 -0.006000 -0.000000 0.000000 -0.006000 0.006000 0.000000 -0.006000 0.006000 0.000000 -0.006000 0.006000 0.000000 -0.006000 0.006000 0.000000 -0.006000 0.006000 0.000000 -0.006000 0.006000 0.000000 -0.006000 0.006000 0.000000 -0.006000 0.006000 0.000000 -0.006000 0.009000 0.000000 -0.006000 -0.009000 0.000000 -0.006000 -0.006000 0.000000 -0.006000 -0.006000 0.000000 -0.006000 -0.006000 0.000000 -0.006000 -0.005999 0.000000 -0.012000 -0.006000 0.000000 -0.012000 -0.005999 0.000000 -0.006000 -0.006000 0.000000 -0.006000 -0.006000 0.000000 -0.006000 0.000000 0.000000 -0.006000 0.000000 0.000000 -0.006000 0.006000 0.000000 -0.006000 0.006000 0.000000 -0.006000 0.006000 0.000000 -0.006000 0.006000 0.000000 -0.006000 0.006000 0.000000 -0.006000 0.006000 0.000000 -0.006000 0.006000 0.000000 -0.006000 0.006000 0.000000 -0.006000 0.009000 0.000000 -0.006000 -0.033000 0.000000 -0.006000 -0.018000 0.000000 -0.006000 -0.018000 0.000000 -0.006000 -0.018000 0.000000 -0.006000 -0.012001 0.000000 -0.012001 -0.012001 0.000000 -0.012000 -0.012001 0.000000 -0.006000 -0.012000 0.000000 -0.006000 -0.006000 0.000000 -0.006000 -0.006000 0.000000 -0.006000 -0.006000 0.000000 -0.006000 -0.000000 0.000000 -0.006000 0.006000 0.000000 -0.006000 0.006000 0.000000 -0.006000 0.006000 0.000000 -0.006000 0.006000 0.000000 -0.006000 0.006000 0.000000 -0.006000 0.006000 0.000000 -0.006000 0.006000 0.000000 -0.006000 0.009000 0.000000 -0.006000 -0.015000 0.000000 -0.006000 -0.012000 0.000000 -0.006000 -0.006000 0.000000 -0.006000 -0.006000 0.000000 -0.006000 -0.005999 0.000000 -0.012000 -0.006000 0.000000 -0.012000 -0.005999 0.000000 -0.006000 -0.000000 0.000000 -0.006000 0.000000 0.000000 -0.006000 0.000000 0.000000 -0.006000 0.000000 0.000000 -0.006000 0.006000 0.000000 -0.006000 0.006000 0.000000 -0.006000 0.006000 0.000000 -0.006000 0.006000 0.000000 -0.006000 0.006000 0.000000 -0.006000 0.006000 0.000000 -0.006000 0.006000 0.000000 -0.006000 0.006000 0.000000 -0.006000 0.009000 0.000000 -0.006000 -0.009000 0.000000 -0.006000 -0.006000 0.000000 -0.006000 -0.006000 0.000000 -0.006000 -0.006000 0.000000 -0.006000 -0.006000 0.000000 -0.006000 -0.006000 0.000000 -0.006000 -0.006000 0.000000 -0.006000 -0.006000 0.000000 -0.006000 -0.006000 0.000000 -0.006000 -0.000000 0.000000 -0.006000 0.000000 0.000000 -0.006000 0.006000 0.000000 -0.006000 0.006000 0.000000 -0.006000 0.006000 0.000000 -0.006000 0.006000 0.000000 -0.006000 0.006000 0.000000 -0.006000 0.006000 0.000000 -0.006000 0.006000 0.000000 -0.006000 0.006000 0.000000 -0.006000 0.009000 0.000000 -0.006000 -0.009000 0.000000 -0.006000 -0.006000 0.000000 -0.006000 -0.006000 0.000000 -0.006000 -0.006000 0.000000 -0.006000 -0.006000 0.000000 -0.006000 -0.006000 0.000000 -0.006000 -0.006000 0.000000 -0.006000 -0.006000 0.000000 -0.006000 -0.006000 0.000000 -0.006000 0.000000 0.000000 -0.006000 0.000000 0.000000 -0.006000 0.006000 0.000000 -0.006000 0.006000 0.000000 -0.006000 0.006000 0.000000 -0.006000 0.006000 0.000000 -0.006000 0.006000 0.000000 -0.006000 0.006000 0.000000 -0.006000 0.006000 0.000000 -0.006000 0.006000 0.000000 -0.006000 0.009000 0.000000 -0.006000 -0.009000 0.000000 -0.006000 -0.006000 0.000000 -0.006000 -0.006000 0.000000 -0.006000 -0.006000 0.000000 -0.006000 -0.006000 0.000000 -0.006000 -0.006000 0.000000 -0.006000 -0.006000 0.000000 -0.006000 -0.006000 0.000000 -0.006000 -0.006000 0.000000 -0.006000 0.000000 0.000000 -0.006000 0.000000 0.000000 -0.006000 0.006000 0.000000 -0.006000 0.006000 0.000000 -0.006000 0.006000 0.000000 -0.006000 0.006000 0.000000 -0.006000 0.006000 0.000000 -0.006000 0.006000 0.000000 -0.006000 0.006000 0.000000 -0.006000 0.006000 0.000000 -0.006000 0.009000 0.000000 -0.006000 -0.009000 0.000000 -0.006000 -0.006000 0.000000 -0.006000 -0.006000 0.000000 -0.006000 -0.006000 0.000000 -0.006000 -0.006000 0.000000 -0.006000 -0.006000 0.000000 -0.006000 -0.006000 0.000000 -0.006000 -0.006000 0.000000 -0.006000 -0.006000 0.000000 -0.006000 -0.000000 0.000000 -0.006000 0.000000 0.000000 -0.006000 0.006000 0.000000 -0.006000 0.006000 0.000000 -0.006000 0.006000 0.000000 -0.006000 0.006000 0.000000 -0.006000 0.006000 0.000000 -0.006000 0.006000 0.000000 -0.006000 0.006000 0.000000 -0.006000 0.006000 0.000000 -0.006000 0.009000 0.000000 -0.006000 -0.009000 0.000000 -0.006000 -0.006000 0.000000 -0.006000 -0.006000 0.000000 -0.006000 -0.006000 0.000000 -0.006000 -0.006000 0.000000 -0.006000 -0.006000 0.000000 -0.006000 -0.006000 0.000000 -0.006000 -0.006000 0.000000 -0.006000 -0.006000 0.000000 -0.006000 0.000000 0.000000 -0.006000 0.000000 0.000000 -0.006000 0.006000 0.000000 -0.006000 0.006000 0.000000 -0.006000 0.006000 0.000000 -0.006000 0.006000 0.000000 -0.006000 0.006000 0.000000 -0.006000 0.006000 0.000000 -0.006000 0.006000 0.000000 -0.006000 0.006000 0.000000 -0.006000 0.009000 0.000000 -0.006000 -0.009000 0.000000 -0.006000 -0.006000 0.000000 -0.006000 -0.006000 0.000000 -0.006000 -0.006000 0.000000 -0.006000 -0.006000 0.000000 -0.006000 -0.006000 0.000000 -0.006000 -0.006000 0.000000 -0.006000 -0.006000 0.000000 -0.006000 -0.006000 0.000000 -0.006000 0.000000 0.000000 -0.006000 0.000000 0.000000 -0.006000 0.006000 0.000000 -0.006000 0.006000 0.000000 -0.006000 0.006000 0.000000 -0.006000 0.006000 0.000000 -0.006000 0.006000 0.000000 -0.006000 0.006000 0.000000 -0.006000 0.006000 0.000000 -0.006000 0.006000 0.000000 -0.006000 0.009000 0.000000 -0.006000 -0.009000 0.000000 -0.006000 -0.006000 0.000000 -0.006000 -0.006000 0.000000 -0.006000 -0.006000 0.000000 -0.006000 -0.006000 0.000000 -0.006000 -0.006000 0.000000 -0.006000 -0.006000 0.000000 -0.006000 -0.006000 0.000000 -0.006000 -0.006000 0.000000 -0.006000 0.000000 0.000000 -0.006000 0.000000 0.000000 -0.006000 0.006000 0.000000 -0.006000 0.006000 0.000000 -0.006000 0.006000 0.000000 -0.006000 0.006000 0.000000 -0.006000 0.006000 0.000000 -0.006000 0.006000 0.000000 -0.006000 0.006000 0.000000 -0.006000 0.006000 0.000000 -0.006000 0.009000 0.000000 -0.006000 -0.009000 0.000000 -0.006000 -0.006000 0.000000 -0.006000 -0.006000 0.000000 -0.006000 -0.006000 0.000000 -0.006000 -0.006000 0.000000 -0.006000 -0.006000 0.000000 -0.006000 -0.006000 0.000000 -0.006000 -0.006000 0.000000 -0.006000 -0.006000 0.000000 -0.006000 0.000000 0.000000 -0.006000 0.000000 0.000000 -0.006000 0.006000 0.000000 -0.006000 0.006000 0.000000 -0.006000 0.006000 0.000000 -0.006000 0.006000 0.000000 -0.006000 0.006000 0.000000 -0.006000 0.006000 0.000000 -0.006000 0.006000 0.000000 -0.006000 0.006000 0.000000 -0.006000 0.009000 0.000000 -0.006000 -0.009000 0.000000 -0.006000 -0.006000 0.000000 -0.006000 -0.006000 0.000000 -0.006000 -0.006000 0.000000 -0.006000 -0.006000 0.000000 -0.006000 -0.006000 0.000000 -0.006000 -0.006000 0.000000 -0.006000 -0.006000 0.000000 -0.006000 -0.006000 0.000000 -0.006000 0.000000 0.000000 -0.006000 0.000000 0.000000 -0.006000 0.006000 0.000000 -0.006000 0.006000 0.000000 -0.006000 0.006000 0.000000 -0.006000 0.006000 0.000000 -0.006000 0.006000 0.000000 -0.006000 0.006000 0.000000 -0.006000 0.006000 0.000000 -0.006000 0.006000 0.000000 -0.006000 0.009000 0.000000 -0.006000 -0.009000 0.000000 -0.006000 -0.006000 0.000000 -0.006000 -0.006000 0.000000 -0.006000 -0.006000 0.000000 -0.006000 -0.006000 0.000000 -0.006000 -0.006000 0.000000 -0.006000 -0.006000 0.000000 -0.006000 -0.006000 0.000000 -0.006000 -0.006000 0.000000 -0.006000 0.000000 0.000000 -0.006000 0.000000 0.000000 -0.006000 0.006000 0.000000 -0.006000 0.006000 0.000000 -0.006000 0.006000 0.000000 -0.006000 0.006000 0.000000 -0.006000 0.006000 0.000000 -0.006000 0.006000 0.000000 -0.006000 0.006000 0.000000 -0.006000 0.006000 0.000000 -0.006000 0.009000 0.000000 -0.006000 -0.009000 0.000000 -0.006000 -0.006000 0.000000 -0.006000 -0.006000 0.000000 -0.006000 -0.006000 0.000000 -0.006000 -0.006000 0.000000 -0.006000 -0.006000 0.000000 -0.006000 -0.006000 0.000000 -0.006000 -0.006000 0.000000 -0.006000 -0.006000 0.000000 -0.006000 0.000000 0.000000 -0.006000 0.000000 0.000000 -0.006000 0.006000 0.000000 -0.006000 0.006000 0.000000 -0.006000 0.006000 0.000000 -0.006000 0.006000 0.000000 -0.006000 0.006000 0.000000 -0.006000 0.006000 0.000000 -0.006000 0.006000 0.000000 -0.006000 0.006000 0.000000 -0.006000 0.009000 0.000000 -0.006000 -0.009000 0.000000 -0.006000 -0.006000 0.000000 -0.006000 -0.006000 0.000000 -0.006000 -0.006000 0.000000 -0.006000 -0.006000 0.000000 -0.006000 -0.006000 0.000000 -0.006000 -0.006000 0.000000 -0.006000 -0.006000 0.000000 -0.006000 -0.006000 0.000000 -0.006000 0.000000 0.000000 -0.006000 0.000000 0.000000 -0.006000 0.006000 0.000000 -0.006000 0.006000 0.000000 -0.006000 0.006000 0.000000 -0.006000 0.006000 0.000000 -0.006000 0.006000 0.000000 -0.006000 0.006000 0.000000 -0.006000 0.006000 0.000000 -0.006000 0.006000 0.000000 -0.006000 0.009000 0.000000 -0.006000 -0.009000 0.000000 -0.006000 -0.006000 0.000000 -0.006000 -0.006000 0.000000 -0.006000 -0.006000 0.000000 -0.006000 -0.006000 0.000000 -0.006000 -0.006000 0.000000 -0.006000 -0.006000 0.000000 -0.006000 -0.006000 0.000000 -0.006000 -0.006000 0.000000 -0.006000 0.000000 0.000000 -0.006000 0.000000 0.000000 -0.006000 0.006000 0.000000 -0.006000 0.006000 0.000000 -0.006000 0.006000 0.000000 -0.006000 0.006000 0.000000 -0.006000 0.006000 0.000000 -0.006000 0.006000 0.000000 -0.006000 0.006000 0.000000 -0.006000 0.006000 0.000000 -0.006000 0.009000 0.000000 -0.006000 -0.009000 0.000000 -0.006000 -0.006000 0.000000 -0.006000 -0.006000 0.000000 -0.006000 -0.006000 0.000000 -0.006000 -0.006000 0.000000 -0.006000 -0.006000 0.000000 -0.006000 -0.006000 0.000000 -0.006000 -0.006000 0.000000 -0.006000 -0.006000 0.000000 -0.006000 0.000000 0.000000 -0.006000 0.000000 0.000000 -0.006000 0.006000 0.000000 -0.006000 0.006000 0.000000 -0.006000 0.006000 0.000000 -0.006000 0.006000 0.000000 -0.006000 0.006000 0.000000 -0.006000 0.006000 0.000000 -0.006000 0.006000 0.000000 -0.006000 0.006000 0.000000 -0.006000 0.009000 0.000000 -0.006000 -0.009000 0.000000 -0.006000 -0.006000 0.000000 -0.006000 -0.006000 0.000000 -0.006000 -0.006000 0.000000 -0.006000 -0.006000 0.000000 -0.006000 -0.006000 0.000000 -0.006000 -0.006000 0.000000 -0.006000 -0.006000 0.000000 -0.006000 -0.006000 0.000000 -0.006000 0.000000 0.000000 -0.006000 0.000000 0.000000 -0.006000 0.006000 0.000000 -0.006000 0.006000 0.000000 -0.006000 0.006000 0.000000 -0.006000 0.006000 0.000000 -0.006000 0.006000 0.000000 -0.006000 0.006000 0.000000 -0.006000 0.006000 0.000000 -0.006000 0.006000 0.000000 -0.006000 0.009000 0.000000 -0.006000 -0.009000 0.000000 -0.006000 -0.006000 0.000000 -0.006000 -0.006000 0.000000 -0.006000 -0.006000 0.000000 -0.006000 -0.006000 0.000000 -0.006000 -0.006000 0.000000 -0.006000 -0.006000 0.000000 -0.006000 -0.006000 0.000000 -0.006000 -0.006000 0.000000 -0.006000 0.000000 0.000000 -0.006000 0.000000 0.000000 -0.006000 0.006000 0.000000 -0.006000 0.006000 0.000000 -0.006000 0.006000 0.000000 -0.006000 0.006000 0.000000 -0.006000 0.006000 0.000000 -0.006000 0.006000 0.000000 -0.006000 0.006000 0.000000 -0.006000 0.006000 0.000000 -0.006000 0.009000 0.000000 -0.006000 -0.009000 0.000000 -0.006000 -0.006000 0.000000 -0.006000 -0.006000 0.000000 -0.006000 -0.006000 0.000000 -0.006000 -0.006000 0.000000 -0.006000 -0.006000 0.000000 -0.006000 -0.006000 0.000000 -0.006000 -0.006000 0.000000 -0.006000 -0.006000 0.000000 -0.006000 0.000000 0.000000 -0.006000 0.000000 0.000000 -0.006000 0.006000 0.000000 -0.006000 0.006000 0.000000 -0.006000 0.006000 0.000000 -0.006000 0.006000 0.000000 -0.006000 0.006000 0.000000 -0.006000 0.006000 0.000000 -0.006000 0.006000 0.000000 -0.006000 0.006000 0.000000 -0.006000 0.009000 0.000000 -0.006000 -0.009000 0.000000 -0.006000 -0.006000 0.000000 -0.006000 -0.006000 0.000000 -0.006000 -0.006000 0.000000 -0.006000 -0.006000 0.000000 -0.006000 -0.006000 0.000000 -0.006000 -0.006000 0.000000 -0.006000 -0.006000 0.000000 -0.006000 -0.006000 0.000000 -0.006000 0.000000 0.000000 -0.006000 0.000000 0.000000 -0.006000 0.006000 0.000000 -0.006000 0.006000 0.000000 -0.006000 0.006000 0.000000 -0.006000 0.006000 0.000000 -0.006000 0.006000 0.000000 -0.006000 0.006000 0.000000 -0.006000 0.006000 0.000000 -0.006000 0.006000 0.000000 -0.006000 0.009000 0.000000 -0.006000 -0.009000 0.000000 -0.006000 -0.006000 0.000000 -0.006000 -0.006000 0.000000 -0.006000 -0.006000 0.000000 -0.006000 -0.006000 0.000000 -0.006000 -0.006000 0.000000 -0.006000 -0.006000 0.000000 -0.006000 -0.006000 0.000000 -0.006000 -0.006000 0.000000 -0.006000 0.000000 0.000000 -0.006000 0.000000 0.000000 -0.006000 0.006000 0.000000 -0.006000 0.006000 0.000000 -0.006000 0.006000 0.000000 -0.006000 0.006000 0.000000 -0.006000 0.006000 0.000000 -0.006000 0.006000 0.000000 -0.006000 0.006000 0.000000 -0.006000 0.006000 0.000000 -0.006000 0.009000 0.000000 -0.006000 -0.009000 0.000000 -0.006000 -0.006000 0.000000 -0.006000 -0.006000 0.000000 -0.006000 -0.006000 0.000000 -0.006000 -0.006000 0.000000 -0.006000 -0.006000 0.000000 -0.006000 -0.006000 0.000000 -0.006000 -0.006000 0.000000 -0.006000 -0.006000 0.000000 -0.006000 0.000000 0.000000 -0.006000 0.000000 0.000000 -0.006000 0.006000 0.000000 -0.006000 0.006000 0.000000 -0.006000 0.006000 0.000000 -0.006000 0.006000 0.000000 -0.006000 0.006000 0.000000 -0.006000 0.006000 0.000000 -0.006000 0.006000 0.000000 -0.006000 0.006000 0.000000 -0.006000 0.009000 0.000000 -0.006000 -0.009000 0.000000 -0.006000 -0.006000 0.000000 -0.006000 -0.006000 0.000000 -0.006000 -0.006000 0.000000 -0.006000 -0.006000 0.000000 -0.006000 -0.006000 0.000000 -0.006000 -0.006000 0.000000 -0.006000 -0.006000 0.000000 -0.006000 -0.006000 0.000000 -0.006000 0.000000 0.000000 -0.006000 0.000000 0.000000 -0.006000 0.006000 0.000000 -0.006000 0.006000 0.000000 -0.006000 0.006000 0.000000 -0.006000 0.006000 0.000000 -0.006000 0.006000 0.000000 -0.006000 0.006000 0.000000 -0.006000 0.006000 0.000000 -0.006000 0.006000 0.000000 -0.006000 0.009000 0.000000 -0.006000 -0.009000 0.000000 -0.006000 -0.006000 0.000000 -0.006000 -0.006000 0.000000 -0.006000 -0.006000 0.000000 -0.006000 -0.006000 0.000000 -0.006000 -0.006000 0.000000 -0.006000 -0.006000 0.000000 -0.006000 -0.006000 0.000000 -0.006000 -0.006000 0.000000 -0.006000 0.000000 0.000000 -0.006000 0.000000 0.000000 -0.006000 0.006000 0.000000 -0.006000 0.006000 0.000000 -0.006000 0.006000 0.000000 -0.006000 0.006000 0.000000 -0.006000 0.006000 0.000000 -0.006000 0.006000 0.000000 -0.006000 0.006000 0.000000 -0.006000 0.006000 0.000000 -0.006000 0.009000 0.000000 -0.006000 -0.009000 0.000000 -0.006000 -0.006000 0.000000 -0.006000 -0.006000 0.000000 -0.006000 -0.006000 0.000000 -0.006000 -0.006000 0.000000 -0.006000 -0.006000 0.000000 -0.006000 -0.006000 0.000000 -0.006000 -0.006000 0.000000 -0.006000 -0.006000 0.000000 -0.006000 0.000000 0.000000 -0.006000 0.000000 0.000000 -0.006000 0.006000 0.000000 -0.006000 0.006000 0.000000 -0.006000 0.006000 0.000000 -0.006000 0.006000 0.000000 -0.006000 0.006000 0.000000 -0.006000 0.006000 0.000000 -0.006000 0.006000 0.000000 -0.006000 0.006000 0.000000 -0.006000 0.009000 0.000000 -0.006000 -0.009000 0.000000 -0.006000 -0.006000 0.000000 -0.006000 -0.006000 0.000000 -0.006000 -0.006000 0.000000 -0.006000 -0.006000 0.000000 -0.006000 -0.006000 0.000000 -0.006000 -0.006000 0.000000 -0.006000 -0.006000 0.000000 -0.006000 -0.006000 0.000000 -0.006000 0.000000 0.000000 -0.006000 0.000000 0.000000 -0.006000 0.006000 0.000000 -0.006000 0.006000 0.000000 -0.006000 0.006000 0.000000 -0.006000 0.006000 0.000000 -0.006000 0.006000 0.000000 -0.006000 0.006000 0.000000 -0.006000 0.006000 0.000000 -0.006000 0.006000 0.000000 -0.006000 0.009000 0.000000 -0.006000 -0.009000 0.000000 -0.006000 -0.006000 0.000000 -0.006000 -0.006000 0.000000 -0.006000 -0.006000 0.000000 -0.006000 -0.006000 0.000000 -0.006000 -0.006000 0.000000 -0.006000 -0.006000 0.000000 -0.006000 -0.006000 0.000000 -0.006000 -0.006000 0.000000 -0.006000 0.000000 0.000000 -0.006000 0.000000 0.000000 -0.006000 0.006000 0.000000 -0.006000 0.006000 0.000000 -0.006000 0.006000 0.000000 -0.006000 0.006000 0.000000 -0.006000 0.006000 0.000000 -0.006000 0.006000 0.000000 -0.006000 0.006000 0.000000 -0.006000 0.006000 0.000000 -0.006000 0.009000 0.000000 -0.006000 -0.009000 0.000000 -0.006000 -0.006000 0.000000 -0.006000 -0.006000 0.000000 -0.006000 -0.006000 0.000000 -0.006000 -0.006000 0.000000 -0.006000 -0.006000 0.000000 -0.006000 -0.006000 0.000000 -0.006000 -0.006000 0.000000 -0.006000 -0.006000 0.000000 -0.006000 0.000000 0.000000 -0.006000 0.000000 0.000000 -0.006000 0.006000 0.000000 -0.006000 0.006000 0.000000 -0.006000 0.006000 0.000000 -0.006000 0.006000 0.000000 -0.006000 0.006000 0.000000 -0.006000 0.006000 0.000000 -0.006000 0.006000 0.000000 -0.006000 0.006000 0.000000 -0.006000 0.009000 0.000000 -0.006000 -0.009000 0.000000 -0.006000 -0.006000 0.000000 -0.006000 -0.006000 0.000000 -0.006000 -0.006000 0.000000 -0.006000 -0.006000 0.000000 0.000000 -0.006000 0.000000 0.000000 -0.006000 0.000000 -0.006000 -0.006000 0.000000 -0.006000 -0.006000 0.000000 -0.006000 0.000000 0.000000 -0.006000 0.000000 0.000000 -0.006000 0.006000 0.000000 -0.006000 0.006000 0.000000 -0.006000 0.006000 0.000000 -0.006000 0.006000 0.000000 -0.006000 0.006000 0.000000 -0.006000 0.006000 0.000000 -0.006000 0.006000 0.000000 -0.006000 0.006000 0.000000 -0.006000 0.009000 0.000000 -0.006000 -0.009000 0.000000 -0.006000 -0.006000 0.000000 -0.006000 -0.006000 0.000000 -0.006000 -0.006000 0.000000 -0.006000 -0.006000 0.000000 0.000000 -0.006000 0.000000 0.000000 -0.006000 0.000000 -0.006000 -0.006000 0.000000 -0.006000 -0.006000 0.000000 -0.006000 0.000000 0.000000 -0.006000 0.000000 0.000000 -0.006000 0.006000 0.000000 -0.006000 0.006000 0.000000 -0.006000 0.006000 0.000000 -0.006000 0.006000 0.000000 -0.006000 0.006000 0.000000 -0.006000 0.006000 0.000000 -0.006000 0.006000 0.000000 -0.006000 0.006