<VTKFile type="UnstructuredGrid" version="0.1" byte_order="LittleEndian">
  <UnstructuredGrid>
    <Piece NumberOfPoints="2000" NumberOfCells="0">
      <Points>
        <DataArray name="Position" type="Float32" NumberOfComponents="3" format="ascii">
-0.003819 -0.002294 0.000000 -0.003819 0.998471 0.000000 -0.003819 1.998471 0.000000 -0.003819 2.998471 0.000000 -0.005181 3.998472 0.000000 -0.005315 4.998472 0.000000 -0.005300 5.998472 0.000000 -0.005336 6.998472 0.000000 -0.003810 7.998473 0.000000 -0.005335 9.000000 0.000000 -0.003806 10.000001 0.000000 -0.003805 11.001527 0.000000 -0.003807 12.001528 0.000000 -0.003807 13.001528 0.000000 -0.003807 14.001528 0.000000 -0.003801 15.001528 0.000000 -0.003801 16.001529 0.000000 -0.003801 17.001529 0.000000 -0.003801 18.001529 0.000000 -0.003801 19.002294 0.000000 0.998468 -0.002294 0.000000 0.998468 0.998471 0.000000 0.997156 1.998471 0.000000 0.996892 2.998471 0.000000 0.996862 3.998472 0.000000 0.995456 4.998472 0.000000 0.995526 5.998472 0.000000 0.996874 6.998472 0.000000 0.996857 7.998473 0.000000 0.996948 9.000000 0.000000 0.996823 10.000001 0.000000 0.997079 11.001527 0.000000 0.998462 12.001528 0.000000 0.998462 13.001528 0.000000 0.998462 14.001528 0.000000 0.998459 15.001528 0.000000 0.998459 16.001529 0.000000 0.998459 17.001529 0.000000 0.996884 18.001529 0.000000 0.996676 19.002294 0.000000 1.998471 -0.002294 0.000000 1.998471 0.998471 0.000000 1.998467 1.998471 0.000000 1.996896 2.998471 0.000000 1.996878 3.998472 0.000000 1.996939 4.998472 0.000000 1.996932 5.998472 0.000000 1.996904 6.998472 0.000000 1.996858 7.998473 0.000000 1.996951 9.000000 0.000000 1.996848 10.000001 0.000000 1.997109 11.001527 0.000000 1.998471 12.001528 0.000000 1.998471 13.001528 0.000000 1.998471 14.001528 0.000000 1.998471 15.001528 0.000000 1.998471 16.001529 0.000000 1.998471 17.001529 0.000000 1.996894 18.001529 0.000000 1.996690 19.002294 0.000000 2.998471 -0.002294 0.000000 2.998471 0.998471 0.000000 2.998470 1.998471 0.000000 2.996902 2.998471 0.000000 2.996913 3.998471 0.000000 2.996947 4.998472 0.000000 2.996949 5.998472 0.000000 2.996947 6.998472 0.000000 2.996860 7.998473 0.000000 2.996955 9.000000 0.000000 2.996852 10.000001 0.000000 2.997131 11.001527 0.000000 2.998471 12.001528 0.000000 2.998471 13.001528 0.000000 2.998471 14.001528 0.000000 2.998471 15.001528 0.000000 2.998471 16.001529 0.000000 2.998471 17.001529 0.000000 2.996911 18.001529 0.000000 2.996701 19.002294 0.000000 3.998471 -0.002294 0.000000 3.998471 0.997749 0.000000 3.998471 1.997854 0.000000 3.996970 2.998004 0.000000 3.996931 3.998090 0.000000 3.996948 4.998859 0.000000 3.996953 5.998946 0.000000 3.996950 6.999094 0.000000 3.996860 7.999194 0.000000 3.997124 9.000001 0.000000 3.996871 10.000005 0.000000 3.997154 11.000900 0.000000 3.998471 12.001528 0.000000 3.998471 13.001528 0.000000 3.998471 14.001528 0.000000 3.998471 15.001529 0.000000 3.998471 16.001529 0.000000 3.998471 17.001530 0.000000 3.996919 18.002159 0.000000 3.996712 19.002294 0.000000 4.998472 -0.008315 0.000000 4.998472 0.995115 0.000000 4.998470 1.995401 0.000000 4.998465 2.995727 0.000000 4.998088 3.996929 0.000000 4.996950 4.996945 0.000000 4.996985 5.996953 0.000000 4.996952 6.996960 0.000000 4.996897 7.997684 0.000000 4.997144 8.998468 0.000000 4.996873 9.999245 0.000000 4.997154 10.999990 0.000000 4.998472 12.001528 0.000000 4.998472 13.001528 0.000000 4.998472 14.001528 0.000000 4.998472 15.001528 0.000000 4.998472 16.001529 0.000000 4.998472 17.001529 0.000000 4.996939 18.001529 0.000000 4.996737 19.002294 0.000000 5.998473 -0.003812 0.000000 5.998473 0.996982 0.000000 5.998473 1.997749 0.000000 5.998473 2.998084 0.000000 5.998245 3.998470 0.000000 5.996955 4.998866 0.000000 5.996990 5.999196 0.000000 5.998463 6.999286 0.000000 5.997663 7.999972 0.000000 5.997346 9.000004 0.000000 5.996889 10.000726 0.000000 5.997214 11.000968 0.000000 5.998472 12.001528 0.000000 5.998472 13.001528 0.000000 5.998472 14.001528 0.000000 5.998472 15.001529 0.000000 5.998472 16.001529 0.000000 5.998472 17.001530 0.000000 5.996939 18.002092 0.000000 5.997580 19.002294 0.000000 6.998473 -0.002294 0.000000 6.998473 0.997724 0.000000 6.998473 1.997814 0.000000 6.998473 2.998471 0.000000 6.998474 3.998472 0.000000 6.997326 4.998472 0.000000 6.997174 5.998472 0.000000 6.998468 6.999125 0.000000 6.997668 7.999216 0.000000 6.998462 8.999999 0.000000 6.997646 10.000001 0.000000 6.997773 11.001527 0.000000 6.998472 12.001528 0.000000 6.998472 13.001528 0.000000 6.998472 14.001528 0.000000 6.998472 15.001528 0.000000 6.998472 16.001529 0.000000 6.998472 17.001529 0.000000 6.996940 18.001529 0.000000 6.997582 19.002294 0.000000 7.998473 -0.002294 0.000000 7.998473 0.998471 0.000000 7.998473 1.998471 0.000000 7.998473 2.998471 0.000000 7.998475 3.998471 0.000000 7.998462 4.998472 0.000000 7.998462 5.998472 0.000000 7.998469 6.998472 0.000000 7.997671 7.998473 0.000000 7.998468 8.999999 0.000000 7.997654 10.000001 0.000000 7.997784 11.001527 0.000000 7.998472 12.001528 0.000000 7.998472 13.001528 0.000000 7.998472 14.001528 0.000000 7.998472 15.001528 0.000000 7.998472 16.001529 0.000000 7.998472 17.001529 0.000000 7.996944 18.001529 0.000000 7.997585 19.002294 0.000000 8.998473 -0.002294 0.000000 8.998473 0.998471 0.000000 8.998473 1.998471 0.000000 8.998473 2.998471 0.000000 8.998475 3.998472 0.000000 8.998469 4.998472 0.000000 8.998469 5.998472 0.000000 8.998469 6.998472 0.000000 8.997675 7.998473 0.000000 8.998469 9.000000 0.000000 8.997659 10.000001 0.000000 8.997788 11.001527 0.000000 8.998473 12.001528 0.000000 8.998473 13.001528 0.000000 8.998473 14.001528 0.000000 8.998473 15.001528 0.000000 8.998473 16.001529 0.000000 8.998473 17.001529 0.000000 8.996974 18.001529 0.000000 8.997587 19.002294 0.000000 9.998474 -0.002294 0.000000 9.998474 0.998471 0.000000 9.998474 1.998471 0.000000 9.998474 2.998471 0.000000 9.998475 3.998472 0.000000 9.998470 4.998472 0.000000 9.998471 5.998472 0.000000 9.998472 6.998472 0.000000 9.998460 7.998473 0.000000 9.998469 9.000000 0.000000 9.997661 10.000001 0.000000 9.997790 11.001527 0.000000 9.998473 12.001528 0.000000 9.998473 13.001528 0.000000 9.998473 14.001528 0.000000 9.998473 15.001528 0.000000 9.998473 16.001529 0.000000 9.998473 17.001529 0.000000 9.997682 18.001529 0.000000 9.997591 19.002294 0.000000 10.998474 -0.002294 0.000000 10.998474 0.998471 0.000000 10.998474 1.998471 0.000000 10.998474 2.998471 0.000000 10.998475 3.998472 0.000000 10.998477 4.998472 0.000000 10.998477 5.998472 0.000000 10.998475 6.998472 0.000000 10.998475 7.998473 0.000000 10.998475 9.000000 0.000000 10.997661 10.000001 0.000000 10.997799 11.001527 0.000000 10.998473 12.001528 0.000000 10.998473 13.001528 0.000000 10.998473 14.001528 0.000000 10.998473 15.001528 0.000000 10.998473 16.001529 0.000000 10.998473 17.001529 0.000000 10.997683 18.001529 0.000000 10.997593 19.002294 0.000000 11.998474 -0.002294 0.000000 11.998474 0.998471 0.000000 11.998474 1.998471 0.000000 11.998474 2.998471 0.000000 11.998476 3.998472 0.000000 11.998477 4.998472 0.000000 11.998477 5.998472 0.000000 11.998475 6.998472 0.000000 11.998475 7.998473 0.000000 11.998475 9.000000 0.000000 11.997663 10.000001 0.000000 11.997801 11.001527 0.000000 11.998474 12.001528 0.000000 11.998474 13.001528 0.000000 11.998474 14.001528 0.000000 11.998474 15.001528 0.000000 11.998474 16.001529 0.000000 11.998474 17.001529 0.000000 11.997690 18.001529 0.000000 11.997603 19.002294 0.000000 12.998475 -0.002294 0.000000 12.998475 0.998471 0.000000 12.998475 1.998471 0.000000 12.998475 2.998471 0.000000 12.998476 3.998472 0.000000 12.998477 4.998472 0.000000 12.998477 5.998472 0.000000 12.998476 6.998472 0.000000 12.998476 7.998473 0.000000 12.998476 9.000000 0.000000 12.998458 10.000001 0.000000 12.998456 11.001527 0.000000 12.998474 12.001528 0.000000 12.998474 13.001528 0.000000 12.998474 14.001528 0.000000 12.998474 15.001528 0.000000 12.998474 16.001529 0.000000 12.998474 17.001529 0.000000 12.997692 18.001529 0.000000 12.997605 19.002294 0.000000 13.998475 -0.002294 0.000000 13.998475 0.998471 0.000000 13.998475 1.998471 0.000000 13.998475 2.998471 0.000000 13.998476 3.998472 0.000000 13.998477 4.998472 0.000000 13.998477 5.998472 0.000000 13.998476 6.998472 0.000000 13.998476 7.998473 0.000000 13.998476 9.000000 0.000000 13.998468 10.000001 0.000000 13.998466 11.001527 0.000000 13.998474 12.001528 0.000000 13.998474 13.001528 0.000000 13.998474 14.001528 0.000000 13.998474 15.001528 0.000000 13.998474 16.001529 0.000000 13.998474 17.001529 0.000000 13.997694 18.001529 0.000000 13.998457 19.002294 0.000000 14.998475 -0.002294 0.000000 14.998475 0.998471 0.000000 14.998475 1.998471 0.000000 14.998475 2.998471 0.000000 14.998477 3.998472 0.000000 14.998478 4.998472 0.000000 14.998478 5.998472 0.000000 14.998476 6.998472 0.000000 14.998476 7.998473 0.000000 14.998476 9.000000 0.000000 14.998468 10.000001 0.000000 14.998468 11.001527 0.000000 14.998475 12.001528 0.000000 14.998475 13.001528 0.000000 14.998475 14.001528 0.000000 14.998475 15.001528 0.000000 14.998475 16.001529 0.000000 14.998475 17.001529 0.000000 14.997696 18.001529 0.000000 14.998469 19.002294 0.000000 15.998475 -0.002294 0.000000 15.998475 0.998471 0.000000 15.998475 1.998471 0.000000 15.998475 2.998471 0.000000 15.998477 3.998472 0.000000 15.998478 4.998472 0.000000 15.998478 5.998472 0.000000 15.998477 6.998472 0.000000 15.998477 7.998473 0.000000 15.998477 9.000000 0.000000 15.998471 10.000001 0.000000 15.998471 11.001527 0.000000 15.998476 12.001528 0.000000 15.998476 13.001528 0.000000 15.998476 14.001528 0.000000 15.998475 15.001528 0.000000 15.998475 16.001529 0.000000 15.998475 17.001529 0.000000 15.997721 18.001529 0.000000 15.998469 19.002294 0.000000 16.998476 -0.002294 0.000000 16.998476 0.998471 0.000000 16.998476 1.998471 0.000000 16.998476 2.998471 0.000000 16.998477 3.998472 0.000000 16.998478 4.998472 0.000000 16.998478 5.998472 0.000000 16.998477 6.998472 0.000000 16.998477 7.998473
[...]
      <PointData Vectors="vector">
        <DataArray type="Float32" Name="Velocity" NumberOfComponents="3" format="ascii">
-0.015000 -0.009000 0.000000 -0.015000 -0.006000 0.000000 -0.015000 -0.006000 0.000000 -0.015000 -0.006000 0.000000 -0.021000 -0.006000 0.000000 -0.021000 -0.006000 0.000000 -0.021000 -0.006000 0.000000 -0.021000 -0.006000 0.000000 -0.015000 -0.006000 0.000000 -0.021000 0.000000 0.000000 -0.015000 0.000000 0.000000 -0.015000 0.006000 0.000000 -0.015000 0.006000 0.000000 -0.015000 0.006000 0.000000 -0.015000 0.006000 0.000000 -0.015000 0.006000 0.000000 -0.015000 0.006000 0.000000 -0.015000 0.006000 0.000000 -0.015000 0.006000 0.000000 -0.015000 0.009000 0.000000 -0.006000 -0.009000 0.000000 -0.006000 -0.006000 0.000000 -0.018000 -0.006000 0.000000 -0.018000 -0.006000 0.000000 -0.012000 -0.006000 0.000000 -0.018000 -0.006000 0.000000 -0.018000 -0.006000 0.000000 -0.018000 -0.006000 0.000000 -0.018000 -0.006000 0.000000 -0.012000 0.000000 0.000000 -0.018000 0.000000 0.000000 -0.018000 0.006000 0.000000 -0.006000 0.006000 0.000000 -0.006000 0.006000 0.000000 -0.006000 0.006000 0.000000 -0.006000 0.006000 0.000000 -0.006000 0.006000 0.000000 -0.006000 0.006000 0.000000 -0.018000 0.006000 0.000000 -0.018000 0.009000 0.000000 -0.006000 -0.009000 0.000000 -0.006000 -0.006000 0.000000 -0.006000 -0.006000 0.000000 -0.018000 -0.006000 0.000000 -0.018000 -0.006000 0.000000 -0.012000 -0.006000 0.000000 -0.012000 -0.006000 0.000000 -0.018000 -0.006000 0.000000 -0.018000 -0.006000 0.000000 -0.012000 0.000000 0.000000 -0.018000 0.000000 0.000000 -0.018000 0.006000 0.000000 -0.006000 0.006000 0.000000 -0.006000 0.006000 0.000000 -0.006000 0.006000 0.000000 -0.006000 0.006000 0.000000 -0.006000 0.006000 0.000000 -0.006000 0.006000 0.000000 -0.018000 0.006000 0.000000 -0.018000 0.009000 0.000000 -0.006000 -0.009000 0.000000 -0.006000 -0.006000 0.000000 -0.006000 -0.006000 0.000000 -0.018000 -0.006000 0.000000 -0.018000 -0.006000 0.000000 -0.012000 -0.006000 0.000000 -0.012000 -0.006000 0.000000 -0.012000 -0.006007 0.000000 -0.018000 -0.006000 0.000000 -0.012000 -0.000000 0.000000 -0.018000 -0.000000 0.000000 -0.018000 0.006000 0.000000 -0.006000 0.006000 0.000000 -0.006000 0.006000 0.000000 -0.006000 0.006000 0.000000 -0.006000 0.006000 0.000000 -0.006000 0.006000 0.000000 -0.006000 0.006000 0.000000 -0.018000 0.006000 0.000000 -0.018000 0.009000 0.000000 -0.006000 -0.009000 0.000000 -0.006000 -0.012000 0.000000 -0.005998 -0.011979 0.000000 -0.018001 -0.011929 0.000000 -0.017988 -0.011972 0.000000 -0.012013 0.000000 0.000000 -0.012007 0.000001 0.000000 -0.011993 0.000027 0.000000 -0.018000 0.000000 0.000000 -0.018000 0.000010 0.000000 -0.018000 0.000034 0.000000 -0.018000 0.000041 0.000000 -0.006000 0.006000 0.000000 -0.006000 0.006000 0.000000 -0.006000 0.006000 0.000000 -0.006000 0.006000 0.000000 -0.006000 0.006000 0.000000 -0.005998 0.006000 0.000000 -0.018002 0.012000 0.000000 -0.018000 0.009000 0.000000 -0.006000 -0.033000 0.000000 -0.006000 -0.030000 0.000000 -0.006000 -0.018020 0.000000 -0.006000 -0.006071 0.000000 -0.012000 -0.012035 0.000000 -0.012001 -0.012001 0.000000 -0.012000 -0.012001 0.000000 -0.012000 -0.012055 0.000000 -0.018000 -0.012044 0.000000 -0.018000 -0.006031 0.000000 -0.018000 -0.000078 0.000000 -0.018000 -0.000092 0.000000 -0.006000 0.006000 0.000000 -0.006000 0.006000 0.000000 -0.006000 0.006000 0.000000 -0.006000 0.006000 0.000000 -0.006000 0.006000 0.000000 -0.006000 0.006000 0.000000 -0.018000 0.006000 0.000000 -0.018000 0.009000 0.000000 -0.006000 -0.015000 0.000000 -0.006000 -0.012000 0.000000 -0.006000 -0.011981 0.000000 -0.006000 -0.011929 0.000000 -0.011988 -0.005958 0.000000 -0.012012 0.000000 0.000000 -0.012000 0.000001 0.000000 -0.005999 -0.005949 0.000000 -0.012001 0.000091 0.000000 -0.017999 0.000021 0.000000 -0.018001 0.006043 0.000000 -0.018001 0.000051 0.000000 -0.005999 0.006000 0.000000 -0.006000 0.006000 0.000000 -0.006000 0.006000 0.000000 -0.006000 0.006000 0.000000 -0.006000 0.006000 0.000000 -0.005998 0.006000 0.000000 -0.018002 0.012000 0.000000 -0.012000 0.009000 0.000000 -0.006000 -0.009000 0.000000 -0.006000 -0.012000 0.000000 -0.006000 -0.011999 0.000000 -0.006000 -0.006000 0.000000 -0.006000 -0.006000 0.000000 -0.018000 -0.006000 0.000000 -0.018000 -0.006000 0.000000 -0.006000 -0.000017 0.000000 -0.012000 -0.000048 0.000000 -0.006000 -0.000000 0.000000 -0.012000 -0.000000 0.000000 -0.012000 0.006000 0.000000 -0.006000 0.006000 0.000000 -0.006000 0.006000 0.000000 -0.006000 0.006000 0.000000 -0.006000 0.006000 0.000000 -0.006000 0.006000 0.000000 -0.006000 0.006000 0.000000 -0.018000 0.006000 0.000000 -0.012000 0.009000 0.000000 -0.006000 -0.009000 0.000000 -0.006000 -0.006000 0.000000 -0.006000 -0.006000 0.000000 -0.006000 -0.006000 0.000000 -0.006000 -0.006000 0.000000 -0.006000 -0.006000 0.000000 -0.006000 -0.006000 0.000000 -0.006000 -0.006000 0.000000 -0.012000 -0.006000 0.000000 -0.006000 0.000000 0.000000 -0.012000 0.000000 0.000000 -0.012000 0.006000 0.000000 -0.006000 0.006000 0.000000 -0.006000 0.006000 0.000000 -0.006000 0.006000 0.000000 -0.006000 0.006000 0.000000 -0.006000 0.006000 0.000000 -0.006000 0.006000 0.000000 -0.018000 0.006000 0.000000 -0.012000 0.009000 0.000000 -0.006000 -0.009000 0.000000 -0.006000 -0.006000 0.000000 -0.006000 -0.006000 0.000000 -0.006000 -0.006000 0.000000 -0.006000 -0.006000 0.000000 -0.006000 -0.006000 0.000000 -0.006000 -0.006000 0.000000 -0.006000 -0.006000 0.000000 -0.012000 -0.006000 0.000000 -0.006000 0.000000 0.000000 -0.012000 0.000000 0.000000 -0.012000 0.006000 0.000000 -0.006000 0.006000 0.000000 -0.006000 0.006000 0.000000 -0.006000 0.006000 0.000000 -0.006000 0.006000 0.000000 -0.006000 0.006000 0.000000 -0.006000 0.006000 0.000000 -0.018000 0.006000 0.000000 -0.012000 0.009000 0.000000 -0.006000 -0.009000 0.000000 -0.006000 -0.006000 0.000000 -0.006000 -0.006000 0.000000 -0.006000 -0.006000 0.000000 -0.006000 -0.006000 0.000000 -0.006000 -0.006000 0.000000 -0.006000 -0.006000 0.000000 -0.006000 -0.006000 0.000000 -0.006000 -0.006000 0.000000 -0.006000 -0.000000 0.000000 -0.012000 0.000000 0.000000 -0.012000 0.006000 0.000000 -0.006000 0.006000 0.000000 -0.006000 0.006000 0.000000 -0.006000 0.006000 0.000000 -0.006000 0.006000 0.000000 -0.006000 0.006000 0.000000 -0.006000 0.006000 0.000000 -0.012000 0.006000 0.000000 -0.012000 0.009000 0.000000 -0.006000 -0.009000 0.000000 -0.006000 -0.006000 0.000000 -0.006000 -0.006000 0.000000 -0.006000 -0.006000 0.000000 -0.006000 -0.006000 0.000000 -0.006000 -0.006000 0.000000 -0.006000 -0.006000 0.000000 -0.006000 -0.006000 0.000000 -0.006000 -0.006000 0.000000 -0.006000 0.000000 0.000000 -0.012000 0.000000 0.000000 -0.012000 0.006000 0.000000 -0.006000 0.006000 0.000000 -0.006000 0.006000 0.000000 -0.006000 0.006000 0.000000 -0.006000 0.006000 0.000000 -0.006000 0.006000 0.000000 -0.006000 0.006000 0.000000 -0.012000 0.006000 0.000000 -0.012000 0.009000 0.000000 -0.006000 -0.009000 0.000000 -0.006000 -0.006000 0.000000 -0.006000 -0.006000 0.000000 -0.006000 -0.006000 0.000000 -0.006000 -0.006000 0.000000 -0.006000 -0.006000 0.000000 -0.006000 -0.006000 0.000000 -0.006000 -0.006000 0.000000 -0.006000 -0.006000 0.000000 -0.006000 0.000000 0.000000 -0.012000 0.000000 0.000000 -0.012000 0.006000 0.000000 -0.006000 0.006000 0.000000 -0.006000 0.006000 0.000000 -0.006000 0.006000 0.000000 -0.006000 0.006000 0.000000 -0.006000 0.006000 0.000000 -0.006000 0.006000 0.000000 -0.012000 0.006000 0.000000 -0.012000 0.009000 0.000000 -0.006000 -0.009000 0.000000 -0.006000 -0.006000 0.000000 -0.006000 -0.006000 0.000000 -0.006000 -0.006000 0.000000 -0.006000 -0.006000 0.000000 -0.006000 -0.006000 0.000000 -0.006000 -0.006000 0.000000 -0.006000 -0.006000 0.000000 -0.006000 -0.006000 0.000000 -0.006000 0.000000 0.000000 -0.006000 0.000000 0.000000 -0.006000 0.006000 0.000000 -0.006000 0.006000 0.000000 -0.006000 0.006000 0.000000 -0.006000 0.006000 0.000000 -0.006000 0.006000 0.000000 -0.006000 0.006000 0.000000 -0.006000 0.006000 0.000000 -0.012000 0.006000 0.000000 -0.012000 0.009000 0.000000 -0.006000 -0.009000 0.000000 -0.006000 -0.006000 0.000000 -0.006000 -0.006000 0.000000 -0.006000 -0.006000 0.000000 -0.006000 -0.006000 0.000000 -0.006000 -0.006000 0.000000 -0.006000 -0.006000 0.000000 -0.006000 -0.006000 0.000000 -0.006000 -0.006000 0.000000 -0.006000 0.000000 0.000000 -0.006000 0.000000 0.000000 -0.006000 0.006000 0.000000 -0.006000 0.006000 0.000000 -0.006000 0.006000 0.000000 -0.006000 0.006000 0.000000 -0.006000 0.006000 0.000000 -0.006000 0.006000 0.000000 -0.006000 0.006000 0.000000 -0.012000 0.006000 0.000000 -0.006000 0.009000 0.000000 -0.006000 -0.009000 0.000000 -0.006000 -0.006000 0.000000 -0.006000 -0.006000 0.000000 -0.006000 -0.006000 0.000000 -0.006000 -0.006000 0.000000 -0.006000 -0.006000 0.000000 -0.006000 -0.006000 0.000000 -0.006000 -0.006000 0.000000 -0.006000 -0.006000 0.000000 -0.006000 0.000000 0.000000 -0.006000 0.000000 0.000000 -0.006000 0.006000 0.000000 -0.006000 0.006000 0.000000 -0.006000 0.006000 0.000000 -0.006000 0.006000 0.000000 -0.006000 0.006000 0.000000 -0.006000 0.006000 0.000000 -0.006000 0.006000 0.000000 -0.012000 0.006000 0.000000 -0.006000 0.009000 0.000000 -0.006000 -0.009000 0.000000 -0.006000 -0.006000 0.000000 -0.006000 -0.006000 0.000000 -0.006000 -0.006000 0.000000 -0.006000 -0.006000 0.000000 -0.006000 -0.006000 0.000000 -0.006000 -0.006000 0.000000 -0.006000 -0.006000 0.000000 -0.006000 -0.006000 0.000000 -0.006000 0.000000 0.000000 -0.006000 0.000000 0.000000 -0.006000 0.006000 0.000000 -0.006000 0.006000 0.000000 -0.006000 0.006000 0.000000 -0.006000 0.006000 0.000000 -0.006000 0.006000 0.000000 -0.006000 0.006000 0.000000 -0.006000 0.006000 0.000000 -0.012000 0.006000 0.000000 -0.006000 0.009000 0.000000 -0.006000 -0.009000 0.000000 -0.006000 -0.006000 0.000000 -0.006000 -0.006000 0.000000 -0.006000 -0.006000 0.000000 -0.006000 -0.006000 0.000000 -0.006000 -0.006000 0.000000 -0.006000 -0.006000 0.000000 -0.006000 -0.006000 0.000000 -0.006000 -0.006000 0.000000 -0.006000 0.000000 0.000000 -0.006000 0.000000 0.000000 -0.006000 0.006000 0.000000 -0.006000 0.006000 0.000000 -0.006000 0.006000 0.000000 -0.006000 0.006000 0.000000 -0.006000 0.006000 0.000000 -0.006000 0.006000 0.000000 -0.006000 0.006000 0.000000 -0.012000 0.006000 0.000000 -0.006000 0.009000 0.000000 -0.006000 -0.009000 0.000000 -0.006000 -0.006000 0.000000 -0.006000 -0.006000 0.000000 -0.006000 -0.006000 0.000000 -0.006000 -0.006000 0.000000 -0.006000 -0.006000 0.000000 -0.006000 -0.006000 0.000000 -0.006000 -0.006000 0.000000 -0.006000 -0.006000 0.000000 -0.006000 0.000000 0.000000 -0.006000 0.000000 0.000000 -0.006000 0.006000 0.000000 -0.006000 0.006000 0.000000 -0.006000 0.006000 0.000000 -0.006000 0.006000 0.000000 -0.006000 0.006000 0.000000 -0.006000 0.006000 0.000000 -0.006000 0.006000 0.000000 -0.006000 0.006000 0.000000 -0.006000 0.009000 0.000000 -0.006000 -0.009000 0.000000 -0.006000 -0.006000 0.000000 -0.006000 -0.006000 0.000000 -0.006000 -0.006000 0.000000 -0.006000 -0.006000 0.000000 -0.006000 -0.006000 0.000000 -0.006000 -0.006000 0.000000 -0.006000 -0.006000 0.000000 -0.006000 -0.006000 0.000000 -0.006000 0.000000 0.000000 -0.006000 0.000000 0.000000 -0.006000 0.006000 0.000000 -0.006000 0.006000 0.000000 -0.006000 0.006000 0.000000 -0.006000 0.006000 0.000000 -0.006000 0.006000 0.000000 -0.006000 0.006000 0.000000 -0.006000 0.006000 0.000000 -0.006000 0.006000 0.000000 -0.006000 0.009000 0.000000 -0.006000 -0.009000 0.000000 -0.006000 -0.006000 0.000000 -0.006000 -0.006000 0.000000 -0.006000 -0.006000 0.000000 -0.006000 -0.006000 0.000000 -0.006000 -0.006000 0.000000 -0.006000 -0.006000 0.000000 -0.006000 -0.006000 0.000000 -0.006000 -0.006000 0.000000 -0.006000 0.000000 0.000000 -0.006000 0.000000 0.000000 -0.006000 0.006000 0.000000 -0.006000 0.006000 0.000000 -0.006000 0.006000 0.000000 -0.006000 0.006000 0.000000 -0.006000 0.006000 0.000000 -0.006000 0.006000 0.000000 -0.006000 0.006000 0.000000 -0.006000 0.006000 0.000000 -0.006000 0.009000 0.000000 -0.006000 -0.009000 0.000000 -0.006000 -0.006000 0.000000 -0.006000 -0.006000 0.000000 -0.006000 -0.006000 0.000000 -0.006000 -0.006000 0.000000 -0.006000 -0.006000 0.000000 -0.006000 -0.006000 0.000000 -0.006000 -0.006000 0.000000 -0.006000 -0.006000 0.000000 -0.006000 0.000000 0.000000 -0.006000 0.000000 0.000000 -0.006000 0.006000 0.000000 -0.006000 0.006000 0.000000 -0.006000 0.006000 0.000000 -0.006000 0.006000 0.000000 -0.006000 0.006000 0.000000 -0.006000 0.006000 0.000000 -0.006000 0.006000 0.000000 -0.006000 0.006000 0.000000 -0.006000 0.009000 0.000000 -0.006000 -0.009000 0.000000 -0.006000 -0.006000 0.000000 -0.006000 -0.006000 0.000000 -0.006000 -0.006000 0.000000 -0.006000 -0.006000 0.000000 -0.006000 -0.006000 0.000000 -0.006000 -0.006000 0.000000 -0.006000 -0.006000 0.000000 -0.006000 -0.006000 0.000000 -0.006000 0.000000 0.000000 -0.006000 0.000000 0.000000 -0.006000 0.006000 0.000000 -0.006000 0.006000 0.000000 -0.006000 0.006000 0.000000 -0.006000 0.006000 0.000000 -0.006000 0.006000 0.000000 -0.006000 0.006000 0.000000 -0.006000 0.006000 0.000000 0.000000 0.006000 0.000000 -0.006000 0.009000 0.000000 -0.006000 -0.009000 0.000000 -0.006000 -0.006000 0.000000 -0.006000 -0.006000 0.000000 -0.006000 -0.006000 0.000000 -0.006000 -0.006000 0.000000 -0.006000 -0.006000 0.000000 -0.006000 -0.006000 0.000000 -0.006000 -0.006000 0.000000 -0.006000 -0.006000 0.000000 -0.006000 0.000000 0.000000 -0.006000 0.000000 0.000000 -0.006000 0.006000 0.000000 -0.006000 0.006000 0.000000 -0.006000 0.006000 0.000000 -0.006000 0.006000 0.000000 -0.006000 0.006000 0.000000 -0.006000 0.006000 0.000000 -0.006000 0.006000 0.000000 0.000000 0.006000 0.000000 -0.006000 0.009000 0.000000 -0.006000 -0.009000 0.000000 -0.006000 -0.006000 0.000000 -0.006000 -0.006000 0.000000 -0.006000 -0.006000 0.000000 -0.006000 -0.006000 0.000000 -0.006000 -0.006000 0.000000 -0.006000 -0.006000 0.000000 -0.006000 -0.006000 0.000000 -0.006000 -0.006000 0.000000 -0.006000 0.000000 0.000000 -0.006000 0.000000 0.000000 -0.006000 0.006000 0.000000 -0.006000 0.006000 0.000000 -0.006000 0.006000 0.000000 -0.006000 0.006000 0.000000 -0.006000 0.006000 0.000000 -0.006000 0.006000 0.000000 -0.006000 0.006000 0.000000 -0.000000 0.006000 0.000000 -0.006000 0.009000 0.000000 -0.006000 -0.009000 0.000000 -0.006000 -0.006000 0.000000 -0.006000 -0.006000 0.000000 -0.006000 -0.006000 0.000000 -0.006000 -0.006000 0.000000 -0.006000 -0.006000 0.000000 -0.006000 -0.006000 0.000000 -0.006000 -0.006000 0.000000 -0.006000 -0.006000 0.000000 -0.006000 0.000000 0.000000 -0.006000 0.000000 0.000000 -0.006000 0.006000 0.000000 -0.006000 0.006000 0.000000 -0.006000 0.006000 0.000000 -0.006000 0.006000 0.000000 -0.006000 0.006000 0.000000 -0.006000 0.006000 0.000000 -0.006000 0.006000 0.000000 0.000000 0.006000 0.000000 -0.006000 0.009000 0.000000 -0.006000 -0.009000 0.000000 -0.006000 -0.006000 0.000000 -0.006000 -0.006000 0.000000 -0.006000 -0.006000 0.000000 -0.006000 -0.006000 0.000000 -0.006000 -0.006000 0.000000 -0.006000 -0.006000 0.000000 -0.006000 -0.006000 0.000000 -0.006000 -0.006000 0.000000 -0.006000 0.000000 0.000000 -0.006000 0.000000 0.000000 -0.000000 0.006000 0.000000 -0.006000 0.006000 0.000000 -0.006000 0.006000 0.000000 -0.006000 0.006000 0.000000 -0.006000 0.006000 0.000000 -0.006000 0.006000 0.000000 -0.006000 0.006000 0.000000 0.000000 0.006000 0.000000 0.000000 0.009000 0.000000 -0.006000 -0.009000 0.000000 -0.006000 -0.006000 0.000000 -0.006000 -0.006000 0.000000 -0.006000 -0.006000 0.000000 0.000000 -0.006000 0.000000 -0.006000 -0.006000 0.000000 -0.006000 -0.006000 0.000000 -0.006000 -0.006000 0.000000 -0.006000 -0.006000 0.000000 -0.006000 0.000000 0.000000 -0.000000 0.000000 0.000000 0.000000 0.006000 0.000000 -0.006000 0.006000 0.000000 -0.006000 0.006000 0.000000 -0.006000 0.006000 0.000000 -0.006000 0.006000 0.000000 -0.006000 0.006000 0.000000 -0.006000 0.006000 0.000000 0.006000 0.006000 0.000000 -0.000000 0.009000 0.000000 -0.006000 -0.009000 0.000000 -0.006000 -0.006000 0.000000 -0.006000 -0.006000 0.000000 -0.006000 -0.006000 0.000000 -0.000000 -0.006000 0.000000 -0.006000 -0.006000 0.000000 -0.006000 -0.006000 0.000000 -0.006000 -0.006000 0.000000 -0.006000 -0.006000 0.000000 -0.006000 -0.000000 0.000000 -0.000000 -0.000000 0.000000 -0.000000 0.006001 0.000000 -0.006000 0.006000 0.000000 -0.006000 0.006000 0.000000 -0.006000 0.006000 0.000000 -0.006000 0.006000 0.000000 -0.006000 0.006000 0.000000 -0.006000 0.006000 0.000000 0.006000 0.006000 0.000000 -0.000000 0.009000 0.000000 -0.006000 -0.009000 0.000000 -0.006000 -0.012000 0.000000 -0.006000 -0.011939 0.000000 -0.006000 -0.011969 0.000000 -0.000001 -0.005980 0.000000 0.000002 -0.005948 0.000000 -0.006001 0.000066 0.000000 -0.006001 0.000007 0.000000 0.000001 0.000022 0.000000 -0.000001 -0.005817 0.000000 0.000002 0.006117 0.000000 0.000002 0.000501 0.000000 -0.006000 0.006000 0.000000 -0.006000 0.006000 0.000000 -0.006000 0.006000 0.000000 -0.006000 0.006000 0.000000 -0.006000 0.006000 0.000000 -0.006002 0.006000 0.000000 0.012002 0.012295 0.000000 0.000000 0.009155 0.000000 -0.011891 -1.191014 0.000000 -0.011860 -1.194021 0.000000 -0.012832 -1.200080 0.000000 -0.011158 -1.167053 0.000000 -0.012741 -1.194029 0.000000 -0.011831 -1.248124 0.000000 -0.003818 -1.200112 0.000000 -0.018588 -1.242062 0.000000 -0.014890 -1.206824 0.000000 -0.016712 -1.181761 0.000000 0.003195 -1.200778 0.000000 -0.008187 -1.207736 0.000000 -0.024005 -9.557533 0.000000 -0.006541 -1.149087 0.000000 -0.009244 -9.392612 0.000000 -0.034231 -0.914648 0.000000 0.037345 -9.242703 0.000000 -0.090205 -0.734086 0.000000 -0.231023 -8.442975 0.000000 0.481228 -0.203444 0.000000 -0.011896 -1.215023 0.000000 -0.011876 -1.158036 0.000000 -0.013151 -1.212014 0.000000 -0.004944 -1.215017 0.000000 -0.005901 -1.233045 0.000000 -0.002237 -1.245096 0.000000 -0.001843 -1.230093 0.000000 -0.011100 -1.194009 0.000000 -0.012768 -1.161767 0.000000 -0.012719 -1.244941 0.000000 0.007795 -1.212388 0.000000 -0.002535 -1.221120 0.000000 -0.023897 -9.687066 0.000000 -0.008548 -1.160654 0.000000 -0.018615 -9.669531 0.000000 -0.025716 -0.895888 0.000000 0.027468 -9.670871 0.000000 -0.071653 -0.716580 0.000000 -0.239672 -9.378106 0.000000 0.511109 -0.655267 0.000000 -0.011919 -1.167021 0.000000 -0.011984 -1.170021 0.000000 -0.013116 -1.233050 0.000000 0.001177 -1.161017 0.000000 -0.012922 -1.284034 0.000000 0.000417 -1.176035 0.000000 0.007857 -1.239068 0.000000 -0.009685 -1.212164 0.000000 0.003945 -1.146652 0.000000 -0.011447 -1.190483 0.000000 0.006843 -1.209383 0.000000 -0.002414 -1.261328 0.000000 -0.023378 -9.513830 0.000000 -0.009680 -1.130582 0.000000 -0.012623 -9.709405 0.000000 -0.017018 -0.919380 0.000000 0.024254 -9.650084 0.000000 -0.067635 -0.788567 0.000000 -0.234181 -9.347121 0.000000 0.491393 -0.658603 0.000000 -0.011935 -1.143008 0.000000 -0.012201 -1.242005 0.000000 -0.006818 -1.164020 0.000000 -0.004989 -1.233055 0.000000 0.002281 -1.299072 0.000000 -0.002247 -1.166977 0.000000 -0.000658 -1.158066 0.000000 -0.007293 -1.182090 0.000000 0.003949 -1.248743 0.000000 -0.006078 -1.235788 0.000000 0.006618 -1.175989 0.000000 0.011288 -1.247819 0.000000 -0.024919 -9.731024 0.000000 -0.009502 -1.095633 0.000000 0.004603 -9.676903 0.000000 -0.021517 -0.969717 0.000000 0.035632 -9.614383 0.000000 -0.060704 -0.826506 0.000000 -0.209674 -9.458367 0.000000 0.497619 -0.580487 0.000000 -0.005999 -1.161055 0.000000 -0.006261 -1.206001 0.000000 -0.000609 -1.284059 0.000000 -0.004963 -1.154984 0.000000 -0.010516 -1.239026 0.000000 -0.002129 -1.230124 0.000000 0.001087 -1.262987 0.000000 -0.001982 -1.287139 0.000000 0.004190 -1.185921 0.000000 -0.001190 -1.121429 0.000000 0.007185 -1.152555 0.000000 0.003012 -1.231630 0.000000 -0.013983 -9.668404 0.000000 -0.003833 -1.114208 0.000000 -0.003636 -9.657124 0.000000 -0.006924 -0.948166 0.000000 0.029161 -9.645338 0.000000 -0.048395 -0.754379 0.000000 -0.