<VTKFile type="UnstructuredGrid" version="0.1" byte_order="LittleEndian">
  <UnstructuredGrid>
    <Piece NumberOfPoints="2000" NumberOfCells="0">
      <Points>
        <DataArray name="Position" type="Float32" NumberOfComponents="3" format="ascii">
-0.006901 -0.004144 0.000000 -0.006901 0.997238 0.000000 -0.006901 1.997238 0.000000 -0.006901 2.997238 0.000000 -0.009496 3.997239 0.000000 -0.009630 4.997239 0.000000 -0.009616 5.997239 0.000000 -0.009651 6.997239 0.000000 -0.009113 7.997240 0.000000 -0.009650 9.000000 0.000000 -0.006888 10.000001 0.000000 -0.015936 11.002760 0.000000 -0.006889 12.002761 0.000000 -0.006889 13.002761 0.000000 -0.015046 14.002761 0.000000 -0.006883 15.002761 0.000000 -0.006883 16.002762 0.000000 -0.045546 17.002762 0.000000 -0.006883 18.002762 0.000000 -0.073143 19.004144 0.000000 0.997235 -0.004144 0.000000 0.997235 0.997238 0.000000 0.993457 1.997238 0.000000 0.993193 2.997238 0.000000 0.993179 3.997239 0.000000 0.991757 4.997239 0.000000 0.991827 5.997239 0.000000 0.993175 6.997239 0.000000 0.991002 7.997240 0.000000 0.993426 9.000000 0.000000 0.993124 10.000001 0.000000 0.984112 11.002760 0.000000 0.995438 12.002761 0.000000 0.996738 13.002761 0.000000 0.985497 14.002761 0.000000 0.997090 15.002761 0.000000 0.996484 16.002762 0.000000 0.955399 17.002762 0.000000 0.993185 18.002762 0.000000 0.927751 19.004144 0.000000 1.997238 -0.004144 0.000000 1.997238 0.997179 0.000000 1.996879 1.997237 0.000000 1.993197 2.997231 0.000000 1.993214 3.997238 0.000000 1.993625 4.997238 0.000000 1.993483 5.997239 0.000000 1.993205 6.997239 0.000000 1.991002 7.997303 0.000000 1.993447 9.000000 0.000000 1.993149 10.000001 0.000000 1.984171 11.002760 0.000000 1.995460 12.002761 0.000000 1.996759 13.002761 0.000000 1.986012 14.002761 0.000000 1.997125 15.002761 0.000000 1.996510 16.002762 0.000000 1.955684 17.002762 0.000000 1.993195 18.002762 0.000000 1.927834 19.004145 0.000000 2.997238 -0.004144 0.000000 2.997238 0.996215 0.000000 2.997025 1.996667 0.000000 2.993199 2.997233 0.000000 2.993232 3.997236 0.000000 2.993636 4.997238 0.000000 2.994466 5.997239 0.000000 2.994481 6.997813 0.000000 2.991088 7.998264 0.000000 2.993651 9.000000 0.000000 2.993153 10.000001 0.000000 2.984458 11.002653 0.000000 2.995460 12.002762 0.000000 2.996760 13.002771 0.000000 2.986081 14.002774 0.000000 2.997149 15.002762 0.000000 2.996510 16.002906 0.000000 2.955814 17.002762 0.000000 2.993212 18.002762 0.000000 2.927898 19.004069 0.000000 3.997238 -0.005290 0.000000 3.997238 0.995389 0.000000 3.997033 1.995550 0.000000 3.993268 2.995636 0.000000 3.994398 3.996431 0.000000 3.994471 4.998865 0.000000 3.994482 5.998950 0.000000 3.994486 6.999099 0.000000 3.991098 7.999243 0.000000 3.994481 9.000006 0.000000 3.993172 10.000012 0.000000 3.984451 11.000890 0.000000 3.996337 12.002761 0.000000 3.996987 13.002761 0.000000 3.986282 14.002761 0.000000 3.997160 15.002762 0.000000 3.996860 16.002762 0.000000 3.955950 17.002763 0.000000 3.993219 18.003662 0.000000 3.927976 19.005274 0.000000 4.997239 -0.015097 0.000000 4.997239 0.988950 0.000000 4.997226 1.991696 0.000000 4.996589 2.994434 0.000000 4.995622 3.994471 0.000000 4.994484 4.994484 0.000000 4.994484 5.994486 0.000000 4.994486 6.994521 0.000000 4.991160 7.995108 0.000000 4.994483 8.997223 0.000000 4.993174 9.999229 0.000000 4.984484 10.999828 0.000000 4.996337 12.002761 0.000000 4.996987 13.002761 0.000000 4.986391 14.002761 0.000000 4.997164 15.002761 0.000000 4.996860 16.002762 0.000000 4.955972 17.002762 0.000000 4.993240 18.002762 0.000000 4.928442 19.003986 0.000000 5.997240 -0.006894 0.000000 5.997240 0.994516 0.000000 5.997241 1.995288 0.000000 5.997208 2.995635 0.000000 5.995781 3.997246 0.000000 5.994486 4.998062 0.000000 5.994514 5.998869 0.000000 5.995573 6.999204 0.000000 5.991140 8.000018 0.000000 5.994486 9.000055 0.000000 5.993189 10.000977 0.000000 5.984587 11.002019 0.000000 5.996345 12.002761 0.000000 5.996995 13.002761 0.000000 5.986456 14.002761 0.000000 5.997174 15.002762 0.000000 5.996871 16.002762 0.000000 5.955970 17.002763 0.000000 5.993241 18.003733 0.000000 5.928450 19.005104 0.000000 6.997240 -0.005339 0.000000 6.997240 0.995348 0.000000 6.997241 1.996204 0.000000 6.997239 2.996454 0.000000 6.996386 3.996755 0.000000 6.995326 4.997719 0.000000 6.994524 5.998274 0.000000 6.997229 6.999123 0.000000 6.991158 7.999220 0.000000 6.997229 8.999999 0.000000 6.995180 10.000001 0.000000 6.984707 11.002684 0.000000 6.996356 12.002761 0.000000 6.997005 13.002780 0.000000 6.986544 14.002788 0.000000 6.997181 15.002762 0.000000 6.996880 16.002841 0.000000 6.955992 17.002762 0.000000 6.993241 18.002762 0.000000 6.928590 19.004070 0.000000 7.997240 -0.004144 0.000000 7.997240 0.996548 0.000000 7.997241 1.997238 0.000000 7.997239 2.997238 0.000000 7.997242 3.997238 0.000000 7.996794 4.997238 0.000000 7.994555 5.997238 0.000000 7.997235 6.997240 0.000000 7.991019 7.997917 0.000000 7.997235 8.999999 0.000000 7.995188 10.000001 0.000000 7.984787 11.002760 0.000000 7.997227 12.002761 0.000000 7.997227 13.002761 0.000000 7.986610 14.002761 0.000000 7.997182 15.002761 0.000000 7.997224 16.002762 0.000000 7.956054 17.002762 0.000000 7.993245 18.002762 0.000000 7.928700 19.004145 0.000000 8.997240 -0.004144 0.000000 8.997240 0.997238 0.000000 8.997242 1.997238 0.000000 8.997240 2.997238 0.000000 8.997242 3.997239 0.000000 8.997228 4.997239 0.000000 8.994679 5.997239 0.000000 8.997235 6.997239 0.000000 8.990883 7.997225 0.000000 8.997236 9.000000 0.000000 8.995193 10.000001 0.000000 8.984778 11.002760 0.000000 8.997238 12.002761 0.000000 8.997236 13.002761 0.000000 8.986622 14.002761 0.000000 8.997224 15.002761 0.000000 8.997236 16.002762 0.000000 8.956083 17.002762 0.000000 8.993275 18.002762 0.000000 8.928559 19.004144 0.000000 9.997241 -0.004144 0.000000 9.997241 0.997238 0.000000 9.997242 1.997238 0.000000 9.997240 2.997238 0.000000 9.997242 3.997239 0.000000 9.997236 4.997239 0.000000 9.994775 5.997239 0.000000 9.997236 6.997239 0.000000 9.990878 7.997240 0.000000 9.997236 9.000000 0.000000 9.995195 10.000001 0.000000 9.984831 11.002760 0.000000 9.997238 12.002761 0.000000 9.997238 13.002761 0.000000 9.986623 14.002761 0.000000 9.997236 15.002761 0.000000 9.997238 16.002762 0.000000 9.956136 17.002762 0.000000 9.995216 18.002762 0.000000 9.928630 19.004144 0.000000 10.997241 -0.004144 0.000000 10.997241 0.997238 0.000000 10.997242 1.997238 0.000000 10.997241 2.997238 0.000000 10.997243 3.997239 0.000000 10.997244 4.997239 0.000000 10.994796 5.997239 0.000000 10.997242 6.997239 0.000000 10.990918 7.997240 0.000000 10.997242 9.000000 0.000000 10.995195 10.000001 0.000000 10.985108 11.002760 0.000000 10.997239 12.002761 0.000000 10.997239 13.002761 0.000000 10.986624 14.002761 0.000000 10.997239 15.002761 0.000000 10.997239 16.002762 0.000000 10.956139 17.002762 0.000000 10.995217 18.002762 0.000000 10.928680 19.004144 0.000000 11.997241 -0.004144 0.000000 11.997241 0.997238 0.000000 11.997242 1.997238 0.000000 11.997241 2.997238 0.000000 11.997243 3.997239 0.000000 11.997244 4.997239 0.000000 11.994798 5.997239 0.000000 11.997242 6.997239 0.000000 11.990788 7.997240 0.000000 11.997242 9.000000 0.000000 11.995197 10.000001 0.000000 11.985290 11.002760 0.000000 11.997239 12.002761 0.000000 11.997239 13.002761 0.000000 11.986632 14.002761 0.000000 11.997239 15.002761 0.000000 11.997239 16.002762 0.000000 11.956110 17.002762 0.000000 11.995224 18.002762 0.000000 11.928634 19.004144 0.000000 12.997242 -0.004144 0.000000 12.997242 0.997238 0.000000 12.997243 1.997238 0.000000 12.997241 2.997238 0.000000 12.997243 3.997239 0.000000 12.997244 4.997239 0.000000 12.994810 5.997239 0.000000 12.997243 6.997239 0.000000 12.990786 7.997240 0.000000 12.997243 9.000000 0.000000 12.997225 10.000001 0.000000 12.985471 11.002760 0.000000 12.997239 12.002761 0.000000 12.997239 13.002761 0.000000 12.986632 14.002761 0.000000 12.997239 15.002761 0.000000 12.997239 16.002762 0.000000 12.956112 17.002762 0.000000 12.995226 18.002762 0.000000 12.928650 19.004144 0.000000 13.997242 -0.004144 0.000000 13.997242 0.997238 0.000000 13.997243 1.997238 0.000000 13.997242 2.997238 0.000000 13.997244 3.997239 0.000000 13.997244 4.997239 0.000000 13.994822 5.997239 0.000000 13.997243 6.997239 0.000000 13.990675 7.997240 0.000000 13.997243 9.000000 0.000000 13.997235 10.000001 0.000000 13.985575 11.002760 0.000000 13.997239 12.002761 0.000000 13.997239 13.002761 0.000000 13.986644 14.002761 0.000000 13.997239 15.002761 0.000000 13.997239 16.002762 0.000000 13.956086 17.002762 0.000000 13.995228 18.002762 0.000000 13.928731 19.004144 0.000000 14.997242 -0.004144 0.000000 14.997242 0.997238 0.000000 14.997243 1.997238 0.000000 14.997242 2.997238 0.000000 14.997244 3.997239 0.000000 14.997245 4.997239 0.000000 14.994828 5.997239 0.000000 14.997243 6.997239 0.000000 14.990552 7.997240 0.000000 14.997243 9.000000 0.000000 14.997235 10.000001 0.000000 14.985607 11.002760 0.000000 14.997243 12.002761 0.000000 14.997243 13.002761 0.000000 14.986689 14.002761 0.000000 14.997240 15.002761 0.000000 14.997240 16.002762 0.000000 14.956040 17.002762 0.000000 14.995230 18.002762 0.000000 14.928770 19.004144 0.000000 15.997242 -0.004144 0.000000 15.997242 0.997238 0.000000 15.997244 1.997238 0.000000 15.997242 2.997238 0.000000 15.997244 3.997239 0.000000 15.997245 4.997239 0.000000 15.994829 5.997239 0.000000 15.997244 6.997239 0.000000 15.990515 7.997240 0.000000 15.997244 9.000000 0.000000 15.997238 10.000001 0.000000 15.985658 11.002760 0.000000 15.997245 12.002761 0.000000 15.997245 13.002761 0.000000 15.986728 14.002761 0.000000 15.997240 15.002761 0.000000 15.997240 16.002762 0.000000 15.956054 17.002762 0.000000 15.995255 18.002762 0.000000 15.928542 19.004144 0.000000 16.997243 -0.004144 0.000000 16.997243 0.997238 0.000000 16.997244 1.997238 0.000000 16.997242 2.997238 0.000000 16.997245 3.997239 0.000000 16.997245 4.997239 0.000000 16.994842 5.997239 0.000000 16.997244 6.997239 0.000000 16.990504 7.997240
[...]
      <PointData Vectors="vector">
        <DataArray type="Float32" Name="Velocity" NumberOfComponents="3" format="ascii">
-0.015000 -0.009000 0.000000 -0.015000 -0.006000 0.000000 -0.015000 -0.006000 0.000000 -0.015000 -0.006000 0.000000 -0.021000 -0.006000 0.000000 -0.021000 -0.006000 0.000000 -0.021000 -0.006000 0.000000 -0.021000 -0.006000 0.000000 -0.267003 -0.006000 0.000000 -0.021000 0.000000 0.000000 -0.015000 0.000000 0.000000 -0.333010 0.006000 0.000000 -0.015000 0.006000 0.000000 -0.015000 0.006000 0.000000 -0.291010 0.006000 0.000000 -0.015000 0.006000 0.000000 -0.015000 0.006000 0.000000 -0.591013 0.006000 0.000000 -0.015000 0.006000 0.000000 -0.813012 0.009000 0.000000 -0.006000 -0.009000 0.000000 -0.006000 -0.006000 0.000000 -0.018000 -0.006000 0.000000 -0.018000 -0.006000 0.000000 -0.018000 -0.006000 0.000000 -0.018000 -0.006000 0.000000 -0.018000 -0.006000 0.000000 -0.018000 -0.006000 0.000000 -0.293998 -0.006010 0.000000 -0.018000 0.000000 0.000000 -0.018000 0.000000 0.000000 -0.407998 0.006000 0.000000 -0.018000 0.006000 0.000000 -0.018000 0.006000 0.000000 -0.288010 0.006000 0.000000 -0.018000 0.006000 0.000000 -0.018000 0.006000 0.000000 -0.563999 0.006000 0.000000 -0.018000 0.006000 0.000000 -0.726024 0.009000 0.000000 -0.006000 -0.009000 0.000000 -0.005999 -0.012000 0.000000 -0.017979 -0.005995 0.000000 -0.018022 -0.006000 0.000000 -0.018002 -0.006000 0.000000 -0.017997 -0.006000 0.000000 -0.017999 -0.006000 0.000000 -0.018000 -0.006000 0.000000 -0.294009 -0.000758 0.000000 -0.018000 0.000000 0.000000 -0.018000 0.000000 0.000000 -0.348033 0.006011 0.000000 -0.018000 0.006000 0.000000 -0.018000 0.006000 0.000000 -0.347986 0.005997 0.000000 -0.018000 0.006000 0.000000 -0.018000 0.006000 0.000000 -0.612007 0.006000 0.000000 -0.018000 0.006000 0.000000 -0.672021 0.009035 0.000000 -0.006000 -0.009000 0.000000 -0.006000 -0.012000 0.000000 -0.011971 -0.011985 0.000000 -0.018030 -0.006000 0.000000 -0.018003 -0.005997 0.000000 -0.017998 -0.006009 0.000000 -0.011999 -0.006004 0.000000 -0.011998 -0.000007 0.000000 -0.186002 -0.000146 0.000000 -0.018000 -0.000000 0.000000 -0.018000 -0.000000 0.000000 -0.369002 0.002330 0.000000 -0.017990 0.006000 0.000000 -0.017966 0.006000 0.000000 -0.282060 0.006007 0.000000 -0.011967 0.006000 0.000000 -0.018003 0.012000 0.000000 -0.606012 0.005998 0.000000 -0.018000 0.006000 0.000000 -0.744014 0.007604 0.000000 -0.006000 -0.015000 0.000000 -0.006000 -0.012000 0.000000 -0.011985 -0.011912 0.000000 -0.018016 -0.011929 0.000000 -0.011986 -0.005975 0.000000 -0.012013 0.000042 0.000000 -0.012007 0.000020 0.000000 -0.011993 0.000027 0.000000 -0.210052 0.005467 0.000000 -0.012000 0.000032 0.000000 -0.018000 0.000034 0.000000 -0.362997 -0.000645 0.000000 -0.012000 0.006000 0.000000 -0.012000 0.006000 0.000000 -0.300000 0.005997 0.000000 -0.012000 0.006000 0.000000 -0.012000 0.006000 0.000000 -0.552006 0.006004 0.000000 -0.018001 0.006000 0.000000 -0.888071 0.018308 0.000000 -0.006000 -0.033000 0.000000 -0.006000 -0.030000 0.000000 -0.006000 -0.018105 0.000000 -0.011988 -0.018082 0.000000 -0.011998 -0.012035 0.000000 -0.012028 -0.012065 0.000000 -0.012000 -0.012031 0.000000 -0.012000 0.011945 0.000000 -0.249030 -0.023168 0.000000 -0.012000 -0.006065 0.000000 -0.018000 -0.000078 0.000000 -0.372207 -0.005655 0.000000 -0.012000 0.006000 0.000000 -0.012000 0.006000 0.000000 -0.246023 0.005999 0.000000 -0.012000 0.006000 0.000000 -0.012000 0.006000 0.000000 -0.680991 0.005995 0.000000 -0.018000 0.006000 0.000000 -0.738121 0.005382 0.000000 -0.006000 -0.015000 0.000000 -0.006000 -0.012000 0.000000 -0.006000 -0.011922 0.000000 -0.012000 -0.011919 0.000000 -0.011988 -0.005958 0.000000 -0.012012 -0.005958 0.000000 -0.012009 0.000021 0.000000 -0.017990 0.000051 0.000000 -0.249146 0.001953 0.000000 -0.011987 0.006033 0.000000 -0.018003 0.000043 0.000000 -0.312645 0.008090 0.000000 -0.011999 0.006000 0.000000 -0.012000 0.006000 0.000000 -0.275978 0.005995 0.000000 -0.012000 0.006000 0.000000 -0.012000 0.006000 0.000000 -0.609012 0.006006 0.000000 -0.017992 0.006000 0.000000 -0.749981 0.018502 0.000000 -0.006000 -0.015000 0.000000 -0.006000 -0.012000 0.000000 -0.006000 -0.011997 0.000000 -0.006000 -0.005998 0.000000 -0.011981 -0.012000 0.000000 -0.006018 -0.000009 0.000000 -0.012001 -0.000005 0.000000 -0.006000 -0.000005 0.000000 -0.248837 0.001071 0.000000 -0.006000 -0.000000 0.000000 -0.012000 -0.000000 0.000000 -0.305214 0.001871 0.000000 -0.011973 0.006000 0.000000 -0.011959 0.006000 0.000000 -0.264087 0.006013 0.000000 -0.011955 0.006000 0.000000 -0.012002 0.012000 0.000000 -0.558009 0.005996 0.000000 -0.018000 0.006000 0.000000 -0.797965 0.007083 0.000000 -0.006000 -0.009000 0.000000 -0.006000 -0.012000 0.000000 -0.006000 -0.005980 0.000000 -0.006000 -0.005991 0.000000 -0.006000 -0.006000 0.000000 -0.018000 -0.006000 0.000000 -0.174004 -0.006000 0.000000 -0.005992 -0.006013 0.000000 -0.276386 -0.001083 0.000000 -0.006000 0.000000 0.000000 -0.012000 0.000000 0.000000 -0.393180 0.005998 0.000000 -0.006000 0.006000 0.000000 -0.006000 0.006000 0.000000 -0.275998 0.005993 0.000000 -0.012000 0.006000 0.000000 -0.006000 0.006000 0.000000 -0.630026 0.006000 0.000000 -0.018000 0.006000 0.000000 -0.771110 0.009088 0.000000 -0.006000 -0.009000 0.000000 -0.006000 -0.006000 0.000000 -0.006000 -0.006000 0.000000 -0.006000 -0.006000 0.000000 -0.006000 -0.006000 0.000000 -0.006000 -0.006000 0.000000 -0.185997 -0.006000 0.000000 -0.006000 -0.006000 0.000000 -0.188605 -0.007338 0.000000 -0.006000 0.000000 0.000000 -0.012000 0.000000 0.000000 -0.351200 0.006000 0.000000 -0.006000 0.006000 0.000000 -0.006000 0.006000 0.000000 -0.270012 0.006000 0.000000 -0.006000 0.006000 0.000000 -0.006000 0.006000 0.000000 -0.557994 0.006000 0.000000 -0.018000 0.006000 0.000000 -0.687088 0.008998 0.000000 -0.006000 -0.009000 0.000000 -0.006000 -0.006000 0.000000 -0.006000 -0.006000 0.000000 -0.006000 -0.006000 0.000000 -0.006000 -0.006000 0.000000 -0.006000 -0.006000 0.000000 -0.174000 -0.006000 0.000000 -0.006000 -0.006000 0.000000 -0.134993 -0.005993 0.000000 -0.006000 -0.000000 0.000000 -0.012000 0.000000 0.000000 -0.431745 0.006000 0.000000 -0.006000 0.006000 0.000000 -0.006000 0.006000 0.000000 -0.324005 0.006000 0.000000 -0.006000 0.006000 0.000000 -0.006000 0.006000 0.000000 -0.516009 0.006000 0.000000 -0.012000 0.006000 0.000000 -0.695800 0.009000 0.000000 -0.006000 -0.009000 0.000000 -0.006000 -0.006000 0.000000 -0.006000 -0.006000 0.000000 -0.006000 -0.006000 0.000000 -0.006000 -0.006000 0.000000 -0.006000 -0.006000 0.000000 -0.186002 -0.006000 0.000000 -0.006000 -0.006000 0.000000 -0.105147 -0.006000 0.000000 -0.006000 0.000000 0.000000 -0.012000 0.000000 0.000000 -0.275984 0.006000 0.000000 -0.006000 0.006000 0.000000 -0.006000 0.006000 0.000000 -0.281989 0.006000 0.000000 -0.006000 0.006000 0.000000 -0.006000 0.006000 0.000000 -0.597036 0.006000 0.000000 -0.012000 0.006000 0.000000 -0.681124 0.009000 0.000000 -0.006000 -0.009000 0.000000 -0.006000 -0.006000 0.000000 -0.006000 -0.006000 0.000000 -0.006000 -0.006000 0.000000 -0.006000 -0.006000 0.000000 -0.006000 -0.006000 0.000000 -0.162002 -0.006000 0.000000 -0.006000 -0.006000 0.000000 -0.167861 -0.006000 0.000000 -0.006000 0.000000 0.000000 -0.012000 0.000000 0.000000 -0.318513 0.006000 0.000000 -0.006000 0.006000 0.000000 -0.006000 0.006000 0.000000 -0.336009 0.006000 0.000000 -0.006000 0.006000 0.000000 -0.006000 0.006000 0.000000 -0.567007 0.006000 0.000000 -0.012000 0.006000 0.000000 -0.735032 0.009000 0.000000 -0.006000 -0.009000 0.000000 -0.006000 -0.006000 0.000000 -0.006000 -0.006000 0.000000 -0.006000 -0.006000 0.000000 -0.006000 -0.006000 0.000000 -0.006000 -0.006000 0.000000 -0.173998 -0.006000 0.000000 -0.006000 -0.006000 0.000000 -0.198104 -0.006000 0.000000 -0.006000 0.000000 0.000000 -0.006000 0.000000 0.000000 -0.353647 0.006000 0.000000 -0.006000 0.006000 0.000000 -0.006000 0.006000 0.000000 -0.216011 0.006000 0.000000 -0.006000 0.006000 0.000000 -0.006000 0.006000 0.000000 -0.567034 0.006000 0.000000 -0.012000 0.006000 0.000000 -0.690412 0.009000 0.000000 -0.006000 -0.009000 0.000000 -0.006000 -0.006000 0.000000 -0.006000 -0.006000 0.000000 -0.006000 -0.006000 0.000000 -0.006000 -0.006000 0.000000 -0.006000 -0.006000 0.000000 -0.174003 -0.006000 0.000000 -0.006000 -0.006000 0.000000 -0.155907 -0.006000 0.000000 -0.006000 0.000000 0.000000 -0.006000 0.000000 0.000000 -0.347704 0.006000 0.000000 -0.006000 0.006000 0.000000 -0.006000 0.006000 0.000000 -0.323973 0.006000 0.000000 -0.006000 0.006000 0.000000 -0.006000 0.006000 0.000000 -0.593948 0.006000 0.000000 -0.012000 0.006000 0.000000 -0.677934 0.009000 0.000000 -0.006000 -0.009000 0.000000 -0.006000 -0.006000 0.000000 -0.006000 -0.006000 0.000000 -0.006000 -0.006000 0.000000 -0.006000 -0.006000 0.000000 -0.006000 -0.006000 0.000000 -0.179996 -0.006000 0.000000 -0.006000 -0.006000 0.000000 -0.179992 -0.006000 0.000000 -0.006000 0.000000 0.000000 -0.006000 0.000000 0.000000 -0.330002 0.006000 0.000000 -0.006000 0.006000 0.000000 -0.006000 0.006000 0.000000 -0.312004 0.006000 0.000000 -0.006000 0.006000 0.000000 -0.006000 0.006000 0.000000 -0.591055 0.006000 0.000000 -0.012000 0.006000 0.000000 -0.723145 0.009000 0.000000 -0.006000 -0.009000 0.000000 -0.006000 -0.006000 0.000000 -0.006000 -0.006000 0.000000 -0.006000 -0.006000 0.000000 -0.006000 -0.006000 0.000000 -0.006000 -0.006000 0.000000 -0.198002 -0.006000 0.000000 -0.006000 -0.006000 0.000000 -0.162003 -0.006000 0.000000 -0.006000 0.000000 0.000000 -0.006000 0.000000 0.000000 -0.390585 0.006000 0.000000 -0.006000 0.006000 0.000000 -0.006000 0.006000 0.000000 -0.297112 0.006000 0.000000 -0.006000 0.006000 0.000000 -0.006000 0.006000 0.000000 -0.606037 0.006000 0.000000 -0.012000 0.006000 0.000000 -0.770809 0.009000 0.000000 -0.006000 -0.009000 0.000000 -0.006000 -0.006000 0.000000 -0.006000 -0.006000 0.000000 -0.006000 -0.006000 0.000000 -0.006000 -0.006000 0.000000 -0.006000 -0.006000 0.000000 -0.165000 -0.006000 0.000000 -0.006000 -0.006000 0.000000 -0.141103 -0.006000 0.000000 -0.006000 0.000000 0.000000 -0.006000 0.000000 0.000000 -0.278791 0.006000 0.000000 -0.006000 0.006000 0.000000 -0.006000 0.006000 0.000000 -0.275951 0.006000 0.000000 -0.006000 0.006000 0.000000 -0.006000 0.006000 0.000000 -0.639174 0.006000 0.000000 -0.012000 0.006000 0.000000 -0.788974 0.009000 0.000000 -0.006000 -0.009000 0.000000 -0.006000 -0.006000 0.000000 -0.006000 -0.006000 0.000000 -0.006000 -0.006000 0.000000 -0.006000 -0.006000 0.000000 -0.006000 -0.006000 0.000000 -0.171001 -0.006000 0.000000 -0.006000 -0.006000 0.000000 -0.170946 -0.006000 0.000000 -0.006000 0.000000 0.000000 -0.006000 0.000000 0.000000 -0.360232 0.006000 0.000000 -0.006000 0.006000 0.000000 -0.006000 0.006000 0.000000 -0.312026 0.006000 0.000000 -0.006000 0.006000 0.000000 -0.006000 0.006000 0.000000 -0.636006 0.006000 0.000000 -0.327002 0.006000 0.000000 -0.810498 0.009000 0.000000 -0.006000 -0.009000 0.000000 -0.006000 -0.006000 0.000000 -0.006000 -0.006000 0.000000 -0.006000 -0.006000 0.000000 -0.006000 -0.006000 0.000000 -0.006000 -0.006000 0.000000 -0.156002 -0.006000 0.000000 -0.006000 -0.006000 0.000000 -0.191965 -0.006000 0.000000 -0.006000 0.000000 0.000000 -0.006000 0.000000 0.000000 -0.221748 0.006000 0.000000 -0.006000 0.006000 0.000000 -0.006000 0.006000 0.000000 -0.318019 0.006000 0.000000 -0.006000 0.006000 0.000000 -0.006000 0.006000 0.000000 -0.596698 0.006000 0.000000 -0.309000 0.006000 0.000000 -0.752026 0.009000 0.000000 -0.006000 -0.009000 0.000000 -0.006000 -0.006000 0.000000 -0.006000 -0.006000 0.000000 -0.006000 -0.006000 0.000000 -0.006000 -0.006000 0.000000 -0.006000 -0.006000 0.000000 -0.177003 -0.006000 0.000000 -0.006000 -0.006000 0.000000 -0.197972 -0.006000 0.000000 -0.006000 0.000000 0.000000 -0.006000 0.000000 0.000000 -0.203874 0.006000 0.000000 -0.006000 0.006000 0.000000 -0.006000 0.006000 0.000000 -0.306027 0.006000 0.000000 -0.006000 0.006000 0.000000 -0.006000 0.006000 0.000000 -0.623999 0.006000 0.000000 -0.258001 0.006000 0.000000 -0.798000 0.009000 0.000000 -0.006000 -0.009000 0.000000 -0.006000 -0.006000 0.000000 -0.006000 -0.006000 0.000000 -0.006000 -0.006000 0.000000 -0.006000 -0.006000 0.000000 -0.006000 -0.006000 0.000000 -0.137999 -0.006000 0.000000 -0.006000 -0.006000 0.000000 -0.258011 -0.006000 0.000000 -0.006000 0.000000 0.000000 -0.006000 0.000000 0.000000 -0.235005 0.006000 0.000000 -0.006000 0.006000 0.000000 -0.000000 0.006000 0.000000 -0.305971 0.006000 0.000000 -0.006000 0.006000 0.000000 -0.000000 0.006000 0.000000 -0.582682 0.006000 0.000000 -0.298513 0.006000 0.000000 -0.760868 0.009000 0.000000 -0.006000 -0.009000 0.000000 -0.006000 -0.006000 0.000000 -0.006000 -0.006000 0.000000 -0.006000 -0.006000 0.000000 -0.006000 -0.006000 0.000000 -0.006000 -0.006000 0.000000 -0.186002 -0.006000 0.000000 -0.006000 -0.006000 0.000000 -0.252027 -0.006000 0.000000 -0.006000 0.000000 0.000000 -0.006000 0.000000 0.000000 -0.215110 0.006000 0.000000 -0.000000 0.006000 0.000000 -0.000000 0.006000 0.000000 -0.297085 0.006000 0.000000 0.000000 0.006000 0.000000 0.000000 0.006000 0.000000 -0.543061 0.006000 0.000000 -0.280628 0.006000 0.000000 -0.786205 0.009000 0.000000 -0.006000 -0.009000 0.000000 -0.006000 -0.006000 0.000000 -0.006000 -0.006000 0.000000 -0.006000 -0.006000 0.000000 -0.006000 -0.006000 0.000000 -0.006000 -0.006000 0.000000 -0.161999 -0.006000 0.000000 -0.006000 -0.006000 0.000000 -0.269997 -0.006000 0.000000 -0.006000 0.000000 0.000000 -0.006000 0.000000 0.000000 -0.264463 0.006000 0.000000 -0.000000 0.006000 0.000000 -0.000000 0.006000 0.000000 -0.275948 0.006000 0.000000 0.000000 0.006000 0.000000 0.000000 0.006000 0.000000 -0.588182 0.006000 0.000000 -0.299860 0.006000 0.000000 -0.846763 0.009000 0.000000 -0.006000 -0.009000 0.000000 -0.006000 -0.006000 0.000000 -0.006000 -0.006000 0.000000 -0.006000 -0.006000 0.000000 -0.006000 -0.006000 0.000000 -0.006000 -0.006000 0.000000 -0.180010 -0.006000 0.000000 -0.006000 -0.006000 0.000000 -0.293974 -0.006000 0.000000 -0.006000 0.000000 0.000000 -0.006000 0.000000 0.000000 -0.269804 0.006002 0.000000 -0.000000 0.006000 0.000000 -0.000000 0.006000 0.000000 -0.279244 0.006000 0.000000 -0.000000 0.006000 0.000000 0.000000 0.006000 0.000000 -0.570424 0.006003 0.000000 -0.300102 0.006000 0.000000 -0.723707 0.009019 0.000000 -0.006000 -0.009000 0.000000 -0.006000 -0.006000 0.000000 -0.006000 -0.006000 0.000000 -0.006000 -0.006000 0.000000 -0.006000 -0.006000 0.000000 -0.006000 -0.006000 0.000000 -0.144024 -0.006000 0.000000 -0.006000 -0.006000 0.000000 -0.285027 -0.005988 0.000000 -0.006000 0.000000 0.000000 -0.006000 0.000000 0.000000 -0.190600 0.005900 0.000000 -0.000000 0.006000 0.000000 -0.000000 0.006000 0.000000 -0.329963 0.006001 0.000000 0.000000 0.006000 0.000000 -0.000000 0.006000 0.000000 -0.577455 0.005936 0.000000 -0.312095 0.005999 0.000000 -0.727226 0.008479 0.000000 -0.006000 -0.009000 0.000000 -0.006000 -0.006000 0.000000 -0.000000 -0.006000 0.000000 -0.006000 -0.006000 0.000000 -0.000000 -0.006000 0.000000 -0.006000 -0.006000 0.000000 -0.162028 -0.005996 0.000000 -0.006000 -0.006000 0.000000 -0.321115 -0.006626 0.000000 -0.006000 0.000000 0.000000 -0.006000 0.000000 0.000000 -0.286960 0.008106 0.000000 -0.000000 0.006000 0.000000 -0.000000 0.006000 0.000000 -0.246204 0.006035 0.000000 0.006000 0.005997 0.000000 -0.000000 0.006000 0.000000 -0.590904 0.007352 0.000000 -0.338181 0.006192 0.000000 -0.797335 0.017831 0.000000 -0.006000 -0.009000 0.000000 -0.006000 -0.012000 0.000000 0.000001 -0.011999 0.000000 -0.000024 -0.012000 0.000000 -0.158968 -0.006001 0.000000 -0.000013 -0.000000 0.000000 -0.193174 -0.006963 0.000000 -0.005991 -0.000000 0.000000 -0.302132 -0.005836 0.000000 -0.006000 0.000000 0.000000 -0.000000 0.000000 0.000000 -0.245621 -0.005403 0.000000 0.000004 -0.000000 0.000000 0.006022 0.000001 0.000000 -0.282174 0.000266 0.000000 0.006032 0.011988 0.000000 0.006066 0.011998 0.000000 -0.712881 -0.035209 0.000000 -0.403522 -0.009016 0.000000 -0.931280 -0.061654 0.000000 -0.006000 -0.009000 0.000000 -0.006000 -0.012000 0.000000 0.005997 -0.012001 0.000000 -0.000014 -0.011989 0.000000 -0.179908 0.004370 0.000000 -0.000025 -0.000000 0.000000 -0.209436 0.047476 0.000000 -0.005879 0.036008 0.000000 -0.253574 -0.016214 0.000000 -0.005150 0.066001 0.000000 0.000181 0.090000 0.000000 -0.340281 0.069744 0.000000 0.001981 0.066038 0.000000 0.005948 0.059999 0.000000 -0.277211 0.079626 0.000000 0.006584 0.084013 0.000000 0.006013 0.054003 0.000000 -2.553435 0.420584 0.000000 -0.569443 0.288600 0.000000 -1.962179 0.024374 0.000000 -0.006000 -0.591009 0.000000 -0.006005 -0.534030 0.000000 -0.006449 -0.521956 0.000000 -0.001845 -0.648033 0.000000 -0.358437 -0.546067 0.000000 0.009174 -0.503957 0.000000 -0.390741 -0.644754 0.000000 0.030024 -0.524765 0.000000 -0.619260 -0.588496 0.000000 0.007255 -0.599915 0.000000 0.031928 -0.617577 0.000000 -0.500532 -0.612663 0.000000 0.025001 -0.885181 0.000000 0.003365 -0.783008 0.000000 -0.334790 -0.855036 0.000000 -0.004707 -0.893068 0.000000 0.436300 -0.994327 0.000000 -0.347024 -1.526082 0.000000 -2.642535 -3.062722 0.000000 2.513862 1.351019 0.000000 -0.013548 -5.946100 0.000000 -0.020626 -5.953456 0.000000 -0.085792 -8.859772 0.000000 0.091346 -5.491228 0.000000 -0.119074 -7.120889 0.000000 0.235530 -5.494385 0.000000 1.044059 -2.994589 0.000000 -1.517647 -6.366700 0.000000 2.064530 -1.177097 0.000000 -1.394007 -6.024409 0.000000 1.593442 -1.596002 0.000000 0.800672 0.028648 0.000000 -0.457310 2.010386 0.000000 0.607631 -1.206824 0.000000 0.235744 -0.875918 0.000000 -0.239906 -1.858520 0.000000 1.731557 2.255926 0.000000 0.131806 1.461264 0.000000 1.468781 4.128966 0.000000 7.045186 -2.237465 0.000000 -0.010907 -6.075165 0.000000 -0.006983 -6.078770 0.000000 -0.108725 -9.686307 0.000000 0.138304 -5.510192 0.000000 -0.087928 -9.472448 0.000000 -0.466615 -4.150944 0.000000 1.407984 -8.507753 0.000000 -2.554741 -3.162158 0.000000 3.434282 -9.013777 0.000000 -3.631639 -3.970154 0.000000 0.617649 -4.382537 0.000000 3.644060 -6.318978 0.000000 -3.580540 -2.815435 0.000000 1.705321 -2.174772 0.000000 0.775165 -4.772047 0.000000 -2.834021 -4.011889 0.000000 2.066082 -1.479929 0.000000 -4.618354 -4.117196 0.000000 -2.362085 2.614113 0.000000 4.147783 -1.288847 0.000000 -0.010961 -6.000055 0.000000 -0.000698 -5.925683 0.000000 -0.089729 -9.668138 0.000000 0.112033 -5.575558 0.000000 -0.144657 -9.209896 0.000000 -0.355014 -4.010272 0.000000 1.258983 -8.426759 0.000000 -2.653384 -3.026576 0.000000 3.279982 -7.296689 0.000000 -3.429930 -4.350272 0.000000 1.180954 -3.355294 0.000000 3.698672 -5.814948 0.000000 -3.140992 -1.393754 0.000000 1.717674 -1.486465 0.000000 0.872173 -4.519958 0.000000 -3.623143 -4.238030 0.000000 2.576261 -4.637771 0.000000 2.813265 -3.203467 0.000000 2.639873 -10.232226 0.000000 7.111108 -3.098512 0.000000 -0.006862 -6.204207 0.000000 -0.012441 -6.064056 0.000000 -0.072417 -9.568196 0.000000 0.133784 -5.155096 0.000000 -0.134983 -9.520219 0.000000 -0.274938 -4.080606 0.000000 1.240749 -8.326357 0.000000 -2.599025 -3.400853 0.000000 3.195022 -7.135942 0.000000 -3.444174 -4.520672 0.000000 0.135600 -3.238267 0.000000 4.108257 -5.674494 0.000000 -4.039307 -1.842667 0.000000 1.747518 -2.112341 0.000000 0.779304 -7.972814 0.000000 -2.912388 -3.613886 0.000000 1.540833 -4.299868 0.000000 1.629971 -6.716305 0.000000 2.493452 -15.740201 0.000000 6.744321 -7.968530 0.000000 -0.004837 -5.994140 0.000000 0.001866 -6.099529 0.000000 -0.080628 -9.697024 0.000000 0.184321 -5.471481 0.000000 -0.124072 -9.344230 0.000000 -0.255976 -3.869412 0.000000 1.637411 -8.455873 0.000000 -2.727108 -3.380338 0.000000 2.979153 -7.538615 0.000000 -3.018773 -4.326602 0.000000 0.814628 -3.518778 0.000000 3.719520 -5.737291 0.000000 -3.957497 -1.870981 0.000000 1.788205 -2.171307 0.000000 0.813645 -7.963884 0.000000 -2.961464 -3.370583 0.000000 1.376375 -4.417960 0.000000 2.542283 -8.655798 0.000000 2.432365 -6.253564 0.000000 -1.2845