<VTKFile type="UnstructuredGrid" version="0.1" byte_order="LittleEndian">
  <UnstructuredGrid>
    <Piece NumberOfPoints="2000" NumberOfCells="0">
      <Points>
        <DataArray name="Position" type="Float32" NumberOfComponents="3" format="ascii">
-0.008296 -0.004981 0.000000 -0.008740 0.996680 0.000000 -0.008296 1.996680 0.000000 -0.012827 2.996680 0.000000 -0.024628 3.996680 0.000000 -0.011583 4.996681 0.000000 -0.040001 5.996681 0.000000 -0.011604 6.996681 0.000000 -0.049100 7.996682 0.000000 -0.011603 9.000000 0.000000 -0.008818 10.000001 0.000000 -0.063660 11.003318 0.000000 -0.008284 12.003319 0.000000 -0.008284 13.003319 0.000000 -0.056156 14.003319 0.000000 -0.008278 15.003319 0.000000 -0.008278 16.003320 0.000000 -0.118787 17.003320 0.000000 -0.036253 18.003320 0.000000 -0.161424 19.004981 0.000000 0.994486 -0.004981 0.000000 0.991456 0.996574 0.000000 0.991783 1.996680 0.000000 0.987771 2.996735 0.000000 0.975483 3.996733 0.000000 0.990083 4.996681 0.000000 0.962519 5.996681 0.000000 0.991501 6.996681 0.000000 0.952354 7.996675 0.000000 0.991752 9.000000 0.000000 0.991475 10.000001 0.000000 0.937575 11.003318 0.000000 0.993764 12.003319 0.000000 0.995064 13.003319 0.000000 0.944049 14.003319 0.000000 0.995416 15.003319 0.000000 0.994810 16.003320 0.000000 0.881734 17.003320 0.000000 0.964408 18.003320 0.000000 0.839242 19.004980 0.000000 1.994663 -0.004981 0.000000 1.991500 0.996071 0.000000 1.995207 1.996680 0.000000 1.987839 2.996677 0.000000 1.979858 3.996681 0.000000 1.991952 4.996680 0.000000 1.964347 5.996675 0.000000 1.991531 6.996681 0.000000 1.952387 7.997201 0.000000 1.991773 9.000000 0.000000 1.991479 10.000001 0.000000 1.937742 11.003330 0.000000 1.993786 12.003319 0.000000 1.995085 13.003319 0.000000 1.944173 14.003318 0.000000 1.995451 15.003319 0.000000 1.994836 16.003320 0.000000 1.881747 17.003320 0.000000 1.965068 18.003321 0.000000 1.839398 19.004993 0.000000 2.994676 -0.004972 0.000000 2.991573 0.995101 0.000000 2.995912 1.995552 0.000000 2.987984 2.996202 0.000000 2.981087 3.996486 0.000000 2.991963 4.996905 0.000000 2.964471 5.996978 0.000000 2.993365 6.997813 0.000000 2.952472 7.998215 0.000000 2.991977 9.000000 0.000000 2.991499 10.000001 0.000000 2.937813 11.002958 0.000000 2.993787 12.003320 0.000000 2.995089 13.003329 0.000000 2.944246 14.003334 0.000000 2.995670 15.003320 0.000000 2.994836 16.004022 0.000000 2.882012 17.003320 0.000000 2.965059 18.003218 0.000000 2.839575 19.004648 0.000000 3.994869 -0.006607 0.000000 3.991617 0.994412 0.000000 3.995918 1.994442 0.000000 3.987977 2.994551 0.000000 3.981240 3.996003 0.000000 3.993354 4.998869 0.000000 3.964532 5.999159 0.000000 3.993375 6.999779 0.000000 3.952514 8.000230 0.000000 3.993365 9.000009 0.000000 3.991500 10.000016 0.000000 3.937844 11.000817 0.000000 3.995221 12.003319 0.000000 3.995871 13.003319 0.000000 3.944250 14.003318 0.000000 3.996034 15.003320 0.000000 3.995744 16.003320 0.000000 3.882127 17.003322 0.000000 3.965065 18.004451 0.000000 3.839659 19.007247 0.000000 4.994818 -0.018263 0.000000 4.991628 0.985985 0.000000 4.996668 1.990012 0.000000 4.988066 2.991260 0.000000 4.982334 3.992521 0.000000 4.993359 4.992620 0.000000 4.964579 5.992236 0.000000 4.993485 6.992455 0.000000 4.952550 7.991995 0.000000 4.993367 8.996659 0.000000 4.991517 9.999221 0.000000 4.938091 10.998996 0.000000 4.995221 12.003319 0.000000 4.995871 13.003319 0.000000 4.944485 14.003319 0.000000 4.996044 15.003319 0.000000 4.995744 16.003320 0.000000 4.882196 17.003319 0.000000 4.965098 18.003023 0.000000 4.839765 19.004170 0.000000 5.994793 -0.008202 0.000000 5.991631 0.993569 0.000000 5.996683 1.994180 0.000000 5.988261 2.994558 0.000000 5.983245 3.997069 0.000000 5.993393 4.997508 0.000000 5.964528 5.999379 0.000000 5.993906 6.999641 0.000000 5.952554 8.000851 0.000000 5.993371 9.000616 0.000000 5.991981 10.000982 0.000000 5.938223 11.002956 0.000000 5.995229 12.003319 0.000000 5.995879 13.003319 0.000000 5.945407 14.003316 0.000000 5.996047 15.003320 0.000000 5.995755 16.003320 0.000000 5.882223 17.003322 0.000000 5.965062 18.004653 0.000000 5.839571 19.007171 0.000000 6.994975 -0.006737 0.000000 6.991860 0.994213 0.000000 6.996683 1.995088 0.000000 6.988478 2.995633 0.000000 6.983424 3.995750 0.000000 6.994767 4.997718 0.000000 6.964615 5.998408 0.000000 6.995914 6.999124 0.000000 6.952629 7.999393 0.000000 6.996671 8.999999 0.000000 6.994064 10.000001 0.000000 6.938355 11.002867 0.000000 6.995242 12.003319 0.000000 6.995893 13.003338 0.000000 6.945490 14.003354 0.000000 6.996060 15.003320 0.000000 6.995764 16.003957 0.000000 6.882204 17.003319 0.000000 6.965203 18.003121 0.000000 6.839608 19.004527 0.000000 7.994983 -0.004957 0.000000 7.991872 0.995440 0.000000 7.996683 1.996171 0.000000 7.988626 2.996350 0.000000 7.983525 3.996529 0.000000 7.995126 4.996912 0.000000 7.964797 5.996791 0.000000 7.996234 6.997175 0.000000 7.952663 7.997767 0.000000 7.996677 8.999999 0.000000 7.994072 10.000001 0.000000 7.938399 11.003345 0.000000 7.996669 12.003319 0.000000 7.996669 13.003319 0.000000 7.945506 14.003315 0.000000 7.996466 15.003319 0.000000 7.996666 16.003320 0.000000 7.882256 17.003320 0.000000 7.965387 18.003325 0.000000 7.839755 19.005015 0.000000 8.995203 -0.004981 0.000000 8.991876 0.996381 0.000000 8.996684 1.996681 0.000000 8.988715 2.996690 0.000000 8.983557 3.996686 0.000000 8.996671 4.997011 0.000000 8.964790 5.996681 0.000000 8.996318 6.996681 0.000000 8.952642 7.996407 0.000000 8.996678 9.000000 0.000000 8.994077 10.000001 0.000000 8.938475 11.003318 0.000000 8.996680 12.003319 0.000000 8.996678 13.003319 0.000000 8.945752 14.003319 0.000000 8.996666 15.003319 0.000000 8.996678 16.003320 0.000000 8.882241 17.003320 0.000000 8.965443 18.003320 0.000000 8.839719 19.004979 0.000000 9.995410 -0.004981 0.000000 9.991880 0.996681 0.000000 9.996684 1.996680 0.000000 9.988892 2.996680 0.000000 9.983915 3.996680 0.000000 9.996678 4.996681 0.000000 9.964914 5.996681 0.000000 9.996669 6.996681 0.000000 9.952726 7.996688 0.000000 9.996678 9.000000 0.000000 9.994079 10.000001 0.000000 9.938738 11.003318 0.000000 9.996680 12.003319 0.000000 9.996680 13.003319 0.000000 9.945951 14.003319 0.000000 9.996678 15.003319 0.000000 9.996680 16.003320 0.000000 9.882228 17.003320 0.000000 9.965434 18.003320 0.000000 9.839766 19.004981 0.000000 10.995440 -0.004981 0.000000 10.992100 0.996680 0.000000 10.996684 1.996680 0.000000 10.989113 2.996680 0.000000 10.984299 3.996681 0.000000 10.996686 4.996681 0.000000 10.964913 5.996681 0.000000 10.996686 6.996681 0.000000 10.952851 7.996682 0.000000 10.996684 9.000000 0.000000 10.994079 10.000001 0.000000 10.938786 11.003318 0.000000 10.996681 12.003319 0.000000 10.996681 13.003319 0.000000 10.946558 14.003319 0.000000 10.996681 15.003319 0.000000 10.996681 16.003320 0.000000 10.882229 17.003320 0.000000 10.965430 18.003320 0.000000 10.839896 19.004981 0.000000 11.995442 -0.004981 0.000000 11.992312 0.996680 0.000000 11.996684 1.996680 0.000000 11.989121 2.996680 0.000000 11.984326 3.996680 0.000000 11.996686 4.996681 0.000000 11.965016 5.996681 0.000000 11.996686 6.996681 0.000000 11.952719 7.996682 0.000000 11.996684 9.000000 0.000000 11.994081 10.000001 0.000000 11.938843 11.003318 0.000000 11.996681 12.003319 0.000000 11.996681 13.003319 0.000000 11.947157 14.003319 0.000000 11.996681 15.003319 0.000000 11.996681 16.003320 0.000000 11.882228 17.003320 0.000000 11.965426 18.003320 0.000000 11.839933 19.004981 0.000000 12.995640 -0.004981 0.000000 12.992578 0.996680 0.000000 12.996685 1.996680 0.000000 12.989213 2.996680 0.000000 12.984368 3.996681 0.000000 12.996686 4.996681 0.000000 12.965117 5.996681 0.000000 12.996686 6.996681 0.000000 12.952720 7.996682 0.000000 12.996685 9.000000 0.000000 12.996667 10.000001 0.000000 12.938918 11.003318 0.000000 12.996681 12.003319 0.000000 12.996681 13.003319 0.000000 12.947597 14.003319 0.000000 12.996681 15.003319 0.000000 12.996681 16.003320 0.000000 12.882201 17.003320 0.000000 12.965050 18.003320 0.000000 12.839961 19.004981 0.000000 13.995641 -0.004981 0.000000 13.992796 0.996680 0.000000 13.996685 1.996680 0.000000 13.989304 2.996680 0.000000 13.984666 3.996681 0.000000 13.996686 4.996681 0.000000 13.965177 5.996681 0.000000 13.996686 6.996681 0.000000 13.952759 7.996682 0.000000 13.996685 9.000000 0.000000 13.996677 10.000001 0.000000 13.939097 11.003318 0.000000 13.996681 12.003319 0.000000 13.996681 13.003319 0.000000 13.947822 14.003319 0.000000 13.996681 15.003319 0.000000 13.996681 16.003320 0.000000 13.882230 17.003320 0.000000 13.965020 18.003320 0.000000 13.840282 19.004981 0.000000 14.995642 -0.004981 0.000000 14.992815 0.996680 0.000000 14.996685 1.996680 0.000000 14.989440 2.996680 0.000000 14.985386 3.996681 0.000000 14.996687 4.996681 0.000000 14.965210 5.996681 0.000000 14.996687 6.996681 0.000000 14.952739 7.996682 0.000000 14.996685 9.000000 0.000000 14.996677 10.000001 0.000000 14.939344 11.003318 0.000000 14.996685 12.003319 0.000000 14.996685 13.003319 0.000000 14.948067 14.003319 0.000000 14.996682 15.003319 0.000000 14.996682 16.003320 0.000000 14.882221 17.003320 0.000000 14.965030 18.003320 0.000000 14.840365 19.004981 0.000000 15.995651 -0.004981 0.000000 15.993011 0.996680 0.000000 15.996686 1.996680 0.000000 15.989523 2.996680 0.000000 15.985409 3.996681 0.000000 15.996687 4.996681 0.000000 15.965122 5.996681 0.000000 15.996687 6.996681 0.000000 15.952820 7.996682 0.000000 15.996686 9.000000 0.000000 15.996680 10.000001 0.000000 15.939410 11.003318 0.000000 15.996687 12.003319 0.000000 15.996687 13.003319 0.000000 15.948558 14.003319 0.000000 15.996682 15.003319 0.000000 15.996682 16.003320 0.000000 15.882225 17.003320 0.000000 15.964916 18.003320 0.000000 15.840530 19.004981 0.000000 16.995854 -0.004981 0.000000 16.993022 0.996680 0.000000 16.996686 1.996680 0.000000 16.989687 2.996680 0.000000 16.985395 3.996681 0.000000 16.996687 4.996681 0.000000 16.965112 5.996681 0.000000 16.996687 6.996681 0.000000 16.952731 7.996682
[...]
      <PointData Vectors="vector">
        <DataArray type="Float32" Name="Velocity" NumberOfComponents="3" format="ascii">
-0.015000 -0.009000 0.000000 -0.117001 -0.005992 0.000000 -0.015000 -0.006000 0.000000 -0.297007 -0.006006 0.000000 -0.453076 -0.006002 0.000000 -0.021000 -0.006000 0.000000 -0.477059 -0.006000 0.000000 -0.021000 -0.006000 0.000000 -0.543009 -0.006000 0.000000 -0.021000 0.000000 0.000000 -0.021000 0.000000 0.000000 -0.801022 0.006000 0.000000 -0.015000 0.006000 0.000000 -0.015000 0.006000 0.000000 -0.543012 0.006000 0.000000 -0.015000 0.006000 0.000000 -0.015000 0.006000 0.000000 -0.939021 0.006000 0.000000 -0.561004 0.006000 0.000000 -1.179023 0.009000 0.000000 -0.066000 -0.009000 0.000000 -0.125992 -0.011916 0.000000 -0.018004 -0.006000 0.000000 -0.185938 -0.005985 0.000000 -0.396080 0.000002 0.000000 -0.018000 -0.006000 0.000000 -0.420048 -0.005999 0.000000 -0.018000 -0.006000 0.000000 -0.612000 -0.006194 0.000000 -0.018000 0.000000 0.000000 -0.018000 0.000000 0.000000 -0.786002 0.005996 0.000000 -0.018000 0.006000 0.000000 -0.018000 0.006000 0.000000 -0.534013 0.006000 0.000000 -0.018000 0.006000 0.000000 -0.018000 0.006000 0.000000 -1.026005 0.006000 0.000000 -0.612006 0.006000 0.000000 -1.164031 0.008995 0.000000 -0.060000 -0.009000 0.000000 -0.095998 -0.011790 0.000000 -0.017979 -0.005995 0.000000 -0.246042 -0.005748 0.000000 -0.311941 -0.005972 0.000000 -0.017997 -0.006000 0.000000 -0.425987 -0.006101 0.000000 -0.018000 -0.006000 0.000000 -0.606018 -0.001473 0.000000 -0.018000 0.000000 0.000000 -0.018000 0.000000 0.000000 -0.786051 0.006405 0.000000 -0.018000 0.006000 0.000000 -0.018000 0.006000 0.000000 -0.545988 0.005987 0.000000 -0.018000 0.006000 0.000000 -0.018000 0.006000 0.000000 -1.014022 0.006000 0.000000 -0.693007 0.006052 0.000000 -1.098035 0.009268 0.000000 -0.060000 -0.008751 0.000000 -0.024000 -0.012033 0.000000 -0.011971 -0.011985 0.000000 -0.231041 -0.010786 0.000000 -0.252100 -0.011007 0.000000 -0.017983 -0.000009 0.000000 -0.372071 -0.002936 0.000000 -0.011998 -0.000007 0.000000 -0.689997 -0.001306 0.000000 -0.018000 -0.000000 0.000000 -0.018000 -0.000000 0.000000 -0.660005 0.005062 0.000000 -0.017990 0.006000 0.000000 -0.017966 0.006000 0.000000 -0.534064 0.006029 0.000000 -0.017967 0.006000 0.000000 -0.018003 0.012000 0.000000 -1.002005 0.005996 0.000000 -0.597009 0.003576 0.000000 -1.176027 0.004334 0.000000 -0.053987 -0.012912 0.000000 -0.107988 -0.009131 0.000000 -0.011985 -0.011912 0.000000 -0.230994 -0.010422 0.000000 -0.245947 -0.002761 0.000000 -0.012013 0.000042 0.000000 -0.503959 0.001456 0.000000 -0.011909 0.012027 0.000000 -0.588034 0.018366 0.000000 -0.012000 0.000032 0.000000 -0.018000 0.000039 0.000000 -0.648024 -0.001066 0.000000 -0.012000 0.006000 0.000000 -0.012000 0.006000 0.000000 -0.534000 0.005984 0.000000 -0.012000 0.006000 0.000000 -0.012000 0.006000 0.000000 -1.020020 0.006010 0.000000 -0.666016 0.011571 0.000000 -1.122099 0.025365 0.000000 -0.054000 -0.035604 0.000000 -0.107999 -0.033599 0.000000 -0.006000 -0.018105 0.000000 -0.233949 -0.045554 0.000000 -0.215977 -0.023601 0.000000 -0.017593 -0.030091 0.000000 -0.478037 -0.035114 0.000000 -0.009724 -0.036043 0.000000 -0.582047 -0.048231 0.000000 -0.012000 -0.006065 0.000000 -0.018000 -0.000093 0.000000 -0.606198 -0.014871 0.000000 -0.012000 0.006000 0.000000 -0.012000 0.006000 0.000000 -0.510033 0.005999 0.000000 -0.012000 0.006000 0.000000 -0.012000 0.006000 0.000000 -0.977987 0.005986 0.000000 -0.555033 -0.001321 0.000000 -1.179152 -0.003261 0.000000 -0.054014 -0.012687 0.000000 -0.108013 -0.008542 0.000000 -0.006000 -0.011922 0.000000 -0.216085 -0.009860 0.000000 -0.192079 0.002725 0.000000 -0.006012 -0.005929 0.000000 -0.561237 0.002951 0.000000 -0.017822 0.012050 0.000000 -0.516227 0.018630 0.000000 -0.011987 0.006033 0.000000 -0.012003 0.000054 0.000000 -0.720655 0.013917 0.000000 -0.011999 0.006000 0.000000 -0.012000 0.006000 0.000000 -0.497978 0.005947 0.000000 -0.012000 0.006000 0.000000 -0.012000 0.006000 0.000000 -1.011031 0.006016 0.000000 -0.567042 0.014746 0.000000 -1.100950 0.027831 0.000000 -0.047999 -0.015054 0.000000 -0.102000 -0.012400 0.000000 -0.006000 -0.011997 0.000000 -0.185964 -0.011482 0.000000 -0.192011 -0.009539 0.000000 -0.006018 -0.000009 0.000000 -0.582034 0.002346 0.000000 -0.018000 0.000018 0.000000 -0.605882 0.002598 0.000000 -0.006000 -0.000000 0.000000 -0.012000 -0.000000 0.000000 -0.665285 0.001704 0.000000 -0.011973 0.006000 0.000000 -0.011959 0.006000 0.000000 -0.510091 0.006117 0.000000 -0.011955 0.006000 0.000000 -0.012002 0.012000 0.000000 -1.005037 0.005990 0.000000 -0.522119 0.001137 0.000000 -1.116013 0.001659 0.000000 -0.048001 -0.008386 0.000000 -0.102000 -0.011842 0.000000 -0.006000 -0.011980 0.000000 -0.144030 -0.010988 0.000000 -0.150009 -0.010252 0.000000 -0.017901 0.000000 0.000000 -0.513208 -0.004549 0.000000 -0.017968 -0.000031 0.000000 -0.597344 -0.001945 0.000000 -0.006000 0.000000 0.000000 -0.012000 0.000000 0.000000 -0.690198 0.006876 0.000000 -0.006000 0.006000 0.000000 -0.006000 0.006000 0.000000 -0.498010 0.005935 0.000000 -0.006000 0.006000 0.000000 -0.006000 0.006000 0.000000 -1.089025 0.006002 0.000000 -0.497975 0.006242 0.000000 -1.143149 0.009857 0.000000 -0.042000 -0.009000 0.000000 -0.102001 -0.011198 0.000000 -0.005996 -0.006000 0.000000 -0.186013 -0.005605 0.000000 -0.180038 -0.005985 0.000000 -0.005982 -0.000000 0.000000 -0.500863 -0.006052 0.000000 -0.006000 -0.006005 0.000000 -0.524558 -0.010865 0.000000 -0.006000 0.000000 0.000000 -0.012000 0.000000 0.000000 -0.642177 0.005978 0.000000 -0.006000 0.006000 0.000000 -0.006000 0.006000 0.000000 -0.498011 0.006002 0.000000 -0.006000 0.006000 0.000000 -0.006000 0.006000 0.000000 -1.007996 0.006000 0.000000 -0.623564 0.005996 0.000000 -1.185077 0.008951 0.000000 -0.036001 -0.009000 0.000000 -0.101999 -0.005957 0.000000 -0.006000 -0.006000 0.000000 -0.191956 -0.006009 0.000000 -0.221961 -0.006007 0.000000 -0.006000 -0.006000 0.000000 -0.482985 -0.006000 0.000000 -0.006000 -0.006000 0.000000 -0.630007 -0.005786 0.000000 -0.006000 -0.000000 0.000000 -0.012000 0.000000 0.000000 -0.617768 0.006000 0.000000 -0.006000 0.006000 0.000000 -0.006000 0.006000 0.000000 -0.486010 0.006000 0.000000 -0.006000 0.006000 0.000000 -0.006000 0.006000 0.000000 -0.987018 0.006000 0.000000 -0.514708 0.006000 0.000000 -1.037828 0.009002 0.000000 -0.035999 -0.009000 0.000000 -0.096000 -0.006000 0.000000 -0.006000 -0.006000 0.000000 -0.119930 -0.006000 0.000000 -0.108005 -0.006000 0.000000 -0.006000 -0.006000 0.000000 -0.492212 -0.006000 0.000000 -0.006000 -0.006000 0.000000 -0.591322 -0.006008 0.000000 -0.006000 0.000000 0.000000 -0.012000 0.000000 0.000000 -0.677996 0.006000 0.000000 -0.006000 0.006000 0.000000 -0.006000 0.006000 0.000000 -0.473979 0.006000 0.000000 -0.006000 0.006000 0.000000 -0.006000 0.006000 0.000000 -1.065030 0.006000 0.000000 -0.390269 0.006000 0.000000 -1.008090 0.009000 0.000000 -0.036001 -0.009000 0.000000 -0.090000 -0.006000 0.000000 -0.006000 -0.006000 0.000000 -0.096018 -0.006000 0.000000 -0.216000 -0.006000 0.000000 -0.006000 -0.006000 0.000000 -0.534086 -0.006000 0.000000 -0.006000 -0.006000 0.000000 -0.608761 -0.006000 0.000000 -0.006000 0.000000 0.000000 -0.012000 0.000000 0.000000 -0.636500 0.006000 0.000000 -0.006000 0.006000 0.000000 -0.006000 0.006000 0.000000 -0.468015 0.006000 0.000000 -0.006000 0.006000 0.000000 -0.006000 0.006000 0.000000 -0.996029 0.006000 0.000000 -0.653083 0.006000 0.000000 -1.086090 0.009000 0.000000 -0.029999 -0.009000 0.000000 -0.084001 -0.006000 0.000000 -0.006000 -0.006000 0.000000 -0.102009 -0.006000 0.000000 -0.191981 -0.006000 0.000000 -0.006000 -0.006000 0.000000 -0.558264 -0.006000 0.000000 -0.006000 -0.006000 0.000000 -0.600147 -0.006000 0.000000 -0.006000 0.000000 0.000000 -0.006000 0.000000 0.000000 -0.629788 0.006000 0.000000 -0.006000 0.006000 0.000000 -0.006000 0.006000 0.000000 -0.450043 0.006000 0.000000 -0.006000 0.006000 0.000000 -0.006000 0.006000 0.000000 -0.969073 0.006000 0.000000 -0.811567 0.006000 0.000000 -1.116550 0.009000 0.000000 -0.030000 -0.009000 0.000000 -0.077999 -0.006000 0.000000 -0.006000 -0.006000 0.000000 -0.137984 -0.006000 0.000000 -0.161996 -0.006000 0.000000 -0.006000 -0.006000 0.000000 -0.527749 -0.006000 0.000000 -0.006000 -0.006000 0.000000 -0.651005 -0.006000 0.000000 -0.006000 0.000000 0.000000 -0.006000 0.000000 0.000000 -0.587488 0.006000 0.000000 -0.006000 0.006000 0.000000 -0.006000 0.006000 0.000000 -0.443922 0.006000 0.000000 -0.006000 0.006000 0.000000 -0.006000 0.006000 0.000000 -0.998934 0.006000 0.000000 -0.577990 0.006000 0.000000 -1.031894 0.009000 0.000000 -0.030000 -0.009000 0.000000 -0.078000 -0.006000 0.000000 -0.006000 -0.006000 0.000000 -0.107993 -0.006000 0.000000 -0.132000 -0.006000 0.000000 -0.006000 -0.006000 0.000000 -0.536884 -0.006000 0.000000 -0.006000 -0.006000 0.000000 -0.489018 -0.006000 0.000000 -0.006000 0.000000 0.000000 -0.006000 0.000000 0.000000 -0.582047 0.006000 0.000000 -0.006000 0.006000 0.000000 -0.006000 0.006000 0.000000 -0.438007 0.006000 0.000000 -0.006000 0.006000 0.000000 -0.006000 0.006000 0.000000 -1.089113 0.006000 0.000000 -0.687546 0.006000 0.000000 -1.110336 0.009000 0.000000 -0.030000 -0.009000 0.000000 -0.072001 -0.006000 0.000000 -0.006000 -0.006000 0.000000 -0.060007 -0.006000 0.000000 -0.249002 -0.006000 0.000000 -0.006000 -0.006000 0.000000 -0.606108 -0.006000 0.000000 -0.006000 -0.006000 0.000000 -0.651148 -0.006000 0.000000 -0.006000 0.000000 0.000000 -0.006000 0.000000 0.000000 -0.535072 0.006000 0.000000 -0.006000 0.006000 0.000000 -0.006000 0.006000 0.000000 -0.426170 0.006000 0.000000 -0.006000 0.006000 0.000000 -0.006000 0.006000 0.000000 -0.954174 0.006000 0.000000 -0.283894 0.006000 0.000000 -1.067803 0.009000 0.000000 -0.024000 -0.009000 0.000000 -0.071999 -0.006000 0.000000 -0.006000 -0.006000 0.000000 -0.068990 -0.006000 0.000000 -0.210100 -0.006000 0.000000 -0.006000 -0.006000 0.000000 -0.605933 -0.006000 0.000000 -0.006000 -0.006000 0.000000 -0.528216 -0.006000 0.000000 -0.006000 0.000000 0.000000 -0.006000 0.000000 0.000000 -0.728733 0.006000 0.000000 -0.006000 0.006000 0.000000 -0.006000 0.006000 0.000000 -0.425951 0.006000 0.000000 -0.006000 0.006000 0.000000 -0.006000 0.006000 0.000000 -1.011147 0.006000 0.000000 -0.531911 0.006000 0.000000 -1.044063 0.009000 0.000000 -0.024000 -0.009000 0.000000 -0.072001 -0.006000 0.000000 -0.006000 -0.006000 0.000000 -0.041995 -0.006000 0.000000 -0.203909 -0.006000 0.000000 -0.006000 -0.006000 0.000000 -0.516251 -0.006000 0.000000 -0.006000 -0.006000 0.000000 -0.648277 -0.006000 0.000000 -0.006000 0.000000 0.000000 -0.006000 0.000000 0.000000 -0.660002 0.006000 0.000000 -0.006000 0.006000 0.000000 -0.006000 0.006000 0.000000 -0.408018 0.006000 0.000000 -0.006000 0.006000 0.000000 -0.006000 0.006000 0.000000 -1.032073 0.006000 0.000000 -0.513986 0.006000 0.000000 -1.032406 0.009000 0.000000 -0.024000 -0.009000 0.000000 -0.072000 -0.006000 0.000000 -0.006000 -0.006000 0.000000 -0.069017 -0.006000 0.000000 -0.372042 -0.006000 0.000000 -0.006000 -0.006000 0.000000 -0.629861 -0.006000 0.000000 -0.006000 -0.006000 0.000000 -0.606253 -0.006000 0.000000 -0.006000 0.000000 0.000000 -0.006000 0.000000 0.000000 -0.645702 0.006000 0.000000 -0.006000 0.006000 0.000000 -0.006000 0.006000 0.000000 -0.408042 0.006000 0.000000 -0.006000 0.006000 0.000000 -0.006000 0.006000 0.000000 -0.980443 0.006000 0.000000 -0.465306 0.006000 0.000000 -1.042668 0.009000 0.000000 -0.024000 -0.009000 0.000000 -0.072002 -0.006000 0.000000 -0.006000 -0.006000 0.000000 -0.059997 -0.006000 0.000000 -0.239986 -0.006000 0.000000 -0.006000 -0.006000 0.000000 -0.510435 -0.006000 0.000000 -0.006000 -0.006000 0.000000 -0.606835 -0.006000 0.000000 -0.006000 0.000000 0.000000 -0.006000 0.000000 0.000000 -0.701083 0.006000 0.000000 -0.006000 0.006000 0.000000 -0.006000 0.006000 0.000000 -0.402048 0.006000 0.000000 -0.006000 0.006000 0.000000 -0.006000 0.006000 0.000000 -0.953998 0.006000 0.000000 -0.432004 0.006000 0.000000 -0.941981 0.009000 0.000000 -0.024000 -0.009000 0.000000 -0.072002 -0.006000 0.000000 -0.006000 -0.006000 0.000000 0.023994 -0.006000 0.000000 -0.384211 -0.006000 0.000000 -0.006000 -0.006000 0.000000 -0.504115 -0.006000 0.000000 -0.006000 -0.006000 0.000000 -0.622737 -0.006000 0.000000 -0.006000 0.000000 0.000000 -0.006000 0.000000 0.000000 -0.566028 0.006000 0.000000 -0.006000 0.006000 0.000000 -0.000000 0.006000 0.000000 -0.389972 0.006000 0.000000 -0.006000 0.006000 0.000000 -0.000000 0.006000 0.000000 -0.958188 0.006000 0.000000 -0.400436 0.006000 0.000000 -0.986656 0.009000 0.000000 -0.024000 -0.009000 0.000000 -0.065996 -0.006000 0.000000 -0.006000 -0.006000 0.000000 -0.126004 -0.006000 0.000000 -0.323832 -0.006000 0.000000 -0.006000 -0.006000 0.000000 -0.413748 -0.006000 0.000000 -0.006000 -0.006000 0.000000 -0.594708 -0.006000 0.000000 -0.006000 0.000000 0.000000 -0.006000 0.000000 0.000000 -0.332600 0.006000 0.000000 -0.000000 0.006000 0.000000 -0.000000 0.006000 0.000000 -0.384110 0.006000 0.000000 0.000000 0.006000 0.000000 0.000000 0.006000 0.000000 -1.026144 0.006001 0.000000 -0.494712 0.006000 0.000000 -0.912884 0.009001 0.000000 -0.018000 -0.009000 0.000000 -0.048004 -0.006000 0.000000 -0.006000 -0.006000 0.000000 -0.102034 -0.006000 0.000000 -0.385505 -0.006000 0.000000 -0.006000 -0.006000 0.000000 -0.528249 -0.006000 0.000000 -0.006000 -0.006000 0.000000 -0.690176 -0.005997 0.000000 -0.006000 0.000000 0.000000 -0.006000 0.000000 0.000000 -0.291088 0.005992 0.000000 -0.000000 0.006000 0.000000 -0.000000 0.006000 0.000000 -0.378025 0.006000 0.000000 0.000000 0.006000 0.000000 0.000000 0.006000 0.000000 -0.966332 0.005983 0.000000 -0.307596 0.005998 0.000000 -0.942145 0.008960 0.000000 -0.018000 -0.009000 0.000000 -0.048002 -0.006000 0.000000 -0.006000 -0.006000 0.000000 -0.078144 -0.006000 0.000000 -0.311072 -0.006023 0.000000 -0.006000 -0.006000 0.000000 -0.497938 -0.005986 0.000000 -0.006000 -0.006000 0.000000 -0.681791 -0.006075 0.000000 -0.006000 0.000000 0.000000 -0.006000 0.000000 0.000000 -0.372646 0.006175 0.000000 -0.000000 0.006000 0.000000 -0.000000 0.006000 0.000000 -0.510211 0.006000 0.000000 -0.000000 0.006000 0.000000 0.000000 0.006000 0.000000 -0.966966 0.006408 0.000000 0.067665 0.006079 0.000000 -0.893492 0.009787 0.000000 -0.018000 -0.009000 0.000000 -0.030005 -0.011929 0.000000 -0.005962 -0.012000 0.000000 0.065930 -0.006018 0.000000 -0.136412 -0.006179 0.000000 -0.005940 0.006000 0.000000 -0.613051 -0.006836 0.000000 -0.000000 -0.006000 0.000000 -0.620823 -0.005127 0.000000 -0.006000 0.000000 0.000000 -0.006000 0.000000 0.000000 -0.207150 0.003753 0.000000 -0.000000 0.006000 0.000000 -0.000000 0.006000 0.000000 -0.329986 0.005960 0.000000 0.000000 0.006000 0.000000 -0.000000 0.006000 0.000000 -0.999242 -0.002377 0.000000 0.364116 0.004107 0.000000 -0.831508 -0.001154 0.000000 -0.012000 -0.009000 0.000000 -0.030019 -0.017045 0.000000 0.000026 -0.006000 0.000000 0.104838 -0.011103 0.000000 -0.209569 0.001073 0.000000 -0.005868 0.000000 0.000000 -0.541003 0.003743 0.000000 -0.000000 -0.006002 0.000000 -0.607068 -0.005653 0.000000 -0.006000 0.000000 0.000000 -0.006000 0.000000 0.000000 -0.648686 0.024710 0.000000 -0.000000 0.006000 0.000000 -0.000000 0.006000 0.000000 -0.312592 0.007716 0.000000 0.006000 0.005997 0.000000 -0.000000 0.006000 0.000000 -0.365486 0.087925 0.000000 0.323495 0.037696 0.000000 -0.652308 0.085002 0.000000 -0.012006 -0.009062 0.000000 -0.030001 -0.013116 0.000000 0.000023 -0.017999 0.000000 0.107894 -0.011120 0.000000 -0.435860 -0.034422 0.000000 0.000699 -0.029993 0.000000 -0.509441 -0.066866 0.000000 0.001037 -0.036021 0.000000 -0.608738 -0.076335 0.000000 -0.006000 0.000000 0.000000 -0.000000 0.000000 0.000000 -1.020808 -0.098882 0.000000 -0.000001 -0.126002 0.000000 0.014809 -0.107835 0.000000 -0.311616 -0.185300 0.000000 0.020677 -0.150303 0.000000 0.023416 -0.118287 0.000000 1.998102 -0.118592 0.000000 1.022847 0.112319 0.000000 1.150539 -0.139221 0.000000 0.043789 0.048334 0.000000 -0.006808 0.041980 0.000000 0.006097 0.065999 0.000000 0.146772 0.184208 0.000000 -0.342144 0.301076 0.000000 0.001373 0.239995 0.000000 -2.029240 0.769873 0.000000 0.015645 0.680833 0.000000 -2.875801 0.765264 0.000000 0.023891 0.539407 0.000000 0.000892 0.408006 0.000000 -0.737207 0.307796 0.000000 0.035248 0.197282 0.000000 0.017206 0.366238 0.000000 -0.279350 0.284475 0.000000 0.018659 0.293811 0.000000 0.078142 0.259115 0.000000 -0.554230 0.537633 0.000000 1.107582 1.418088 0.000000 3.761110 1.422283 0.000000 0.258263 -1.378423 0.000000 0.119668 -1.205934 0.000000 0.000685 -1.236044 0.000000 0.175185 -1.132370 0.000000 -0.852560 -1.062493 0.000000 0.221552 -1.700752 0.000000 -1.078510 -1.502121 0.000000 0.356871 -1.394617 0.000000 -1.117181 -1.863544 0.000000 0.257163 -2.042337 0.000000 0.422413 -2.082277 0.000000 -1.001136 -2.441866 0.000000 0.316734 -2.197269 0.000000 0.192293 -1.805587 0.000000 -0.617501 -1.871985 0.000000 -1.022224 -1.157110 0.000000 0.844646 -1.422666 0.000000 -0.127704 -1.551641 0.000000 0.959929 2.986133 0.000000 2.513862 1.351019 0.000000 -0.010584 -9.711135 0.000000 -0.038460 -9.610739 0.000000 -0.550066 -8.971405 0.000000 0.344866 -5.419559 0.000000 -0.014376 -3.308529 0.000000 -1.338679 -5.660302 0.000000 2.666322 -1.953428 0.000000 -1.123697 -0.316127 0.000000 3.962126 -4.718307 0.000000 -1.311229 -1.800420 0.000000 1.919843 0.313853 0.000000 0.800672 0.028648 0.000000 -2.506279 0.683643 0.000000 2.754832 2.103749 0.000000 0.088531 2.704563 0.000000 -2.184051 4.246676 0.000000 2.142073 1.925918 0.000000 0.337371 0.900654 0.000000 2.528397 -0.955144 0.000000 6.911182 -2.503897 0.000000 -0.015617 -11.463270 0.000000 -0.044273 -11.359107 0.000000 -0.413775 -8.757805 0.000000 0.490668 -4.825138 0.000000 -0.147771 -10.063877 0.000000 -0.965018 -4.007882 0.000000 1.545777 -6.098255 0.000000 4.383554 4.050099 0.000000 1.344688 -2.831257 0.000000 -3.512593 -1.593483 0.000000 0.566983 0.898318 0.000000 4.338734 -2.566520 0.000000 1.785467 1.125443 0.000000 0.554201 2.099703 0.000000 0.564813 -2.601369 0.000000 -3.931593 1.735324 0.000000 2.682844 4.952365 0.000000 5.119959 4.409481 0.000000 1.142942 0.677518 0.000000 -0.056603 -1.129183 0.000000 -0.019696 -11.205235 0.000000 -0.195384 -11.161859 0.000000 -0.300282 -8.665225 0.000000 0.505812 -4.613554 0.000000 -0.099311 -9.335167 0.000000 -1.055001 -2.877493 0.000000 2.433902 -6.678014 0.000000 -0.662142 -4.960816 0.000000 1.894796 -3.311660 0.000000 -1.521592 -6.191630 0.000000 -0.928936 -2.375122 0.000000 4.175783 -4.268898 0.000000 -2.356829 -6.305143 0.000000 2.142529 -8.797667 0.000000 -2.812984 -8.796034 0.000000 -0.211216 -7.783384 0.000000 -1.857143 -8.879889 0.000000 -2.301349 -10.970898 0.000000 -2.749117 -19.404523 0.000000 4.930925 -18.712451 0.000000 -0.014321 -11.235478 0.000000 0.141558 -11.080378 0.000000 -0.421632 -8.934357 0.000000 0.510037 -4.383823 0.000000 0.174462 -9.147865 0.000000 -1.126520 -3.180789 0.000000 1.578422 -4.614866 0.000000 -0.775020 -5.397032 0.000000 2.331824 -4.325457 0.000000 -0.316091 -5.053999 0.000000 -1.064979 -3.423889 0.000000 3.285205 -11.071562 0.000000 5.425644 -4.038906 0.000000 2.865321 -9.960404 0.000000 -1.501210 -5.640738 0.000000 -1.165276 -6.669111 0.000000 -1.245708 -7.129524 0.000000 -1.311353 -15.109154 0.000000 12.348095 -15.516483 0.000000 10.499265 -1.933677 0.000000 -0.010264 -11.391358 0.000000 0.056677 -11.287426 0.000000 -0.340786 -8.273948 0.000000 0.649346 -4.719059 0.000000 0.120703 -9.650084 0.000000 -0.900124 -3.280057 0.000000 2.464901 -4.064807 0.000000 -1.839035 -5.796026 0.000000 1.910767 -1.893866 0.000000 -3.102648 -6.442199 0.000000 -0.649885 -3.489307 0.000000 4.009329 -8.515415 0.000000 1.699291 -2.357284 0.000000 0.178516 -8.466046 0.000000 3.891970 -4.890144 0.000000 -3.196905 -5.458815 0.000000 -3.278565 -5.072364 0.000000 -4.858572 -6.157896 0.000000 4.911944 -0.451651 0.000000 6.481340 -23.427940 0.000000 