<VTKFile type="UnstructuredGrid" version="0.1" byte_order="LittleEndian">
  <UnstructuredGrid>
    <Piece NumberOfPoints="2000" NumberOfCells="0">
      <Points>
        <DataArray name="Position" type="Float32" NumberOfComponents="3" format="ascii">
-0.001321 -0.000796 0.000000 -0.001321 0.999470 0.000000 -0.001321 1.999470 0.000000 -0.001321 2.999470 0.000000 -0.001684 3.999471 0.000000 -0.001818 4.999471 0.000000 -0.001804 5.999471 0.000000 -0.001839 6.999471 0.000000 -0.001312 7.999472 0.000000 -0.001838 9.000000 0.000000 -0.001308 10.000001 0.000000 -0.001307 11.000528 0.000000 -0.001309 12.000529 0.000000 -0.001309 13.000529 0.000000 -0.001309 14.000529 0.000000 -0.001303 15.000529 0.000000 -0.001303 16.000530 0.000000 -0.001303 17.000530 0.000000 -0.001303 18.000530 0.000000 -0.001303 19.000796 0.000000 0.999467 -0.000796 0.000000 0.999467 0.999470 0.000000 0.999467 1.999470 0.000000 0.999467 2.999470 0.000000 0.998860 3.999471 0.000000 0.998453 4.999471 0.000000 0.998523 5.999471 0.000000 0.998945 6.999471 0.000000 0.999462 7.999472 0.000000 0.998946 9.000000 0.000000 0.999460 10.000001 0.000000 0.999460 11.000528 0.000000 0.999461 12.000529 0.000000 0.999461 13.000529 0.000000 0.999461 14.000529 0.000000 0.999458 15.000529 0.000000 0.999458 16.000530 0.000000 0.999458 17.000530 0.000000 0.999458 18.000530 0.000000 0.999458 19.000796 0.000000 1.999470 -0.000796 0.000000 1.999470 0.999470 0.000000 1.999470 1.999470 0.000000 1.999470 2.999470 0.000000 1.999466 3.999471 0.000000 1.998937 4.999471 0.000000 1.998930 5.999471 0.000000 1.998949 6.999471 0.000000 1.999470 7.999472 0.000000 1.998949 9.000000 0.000000 1.999470 10.000001 0.000000 1.999470 11.000528 0.000000 1.999470 12.000529 0.000000 1.999470 13.000529 0.000000 1.999470 14.000529 0.000000 1.999470 15.000529 0.000000 1.999470 16.000530 0.000000 1.999470 17.000530 0.000000 1.999470 18.000530 0.000000 1.999470 19.000796 0.000000 2.999470 -0.000796 0.000000 2.999470 0.999470 0.000000 2.999470 1.999470 0.000000 2.999470 2.999470 0.000000 2.999469 3.999471 0.000000 2.998945 4.999471 0.000000 2.998947 5.999471 0.000000 2.998953 6.999471 0.000000 2.999470 7.999472 0.000000 2.998953 9.000000 0.000000 2.999470 10.000001 0.000000 2.999470 11.000528 0.000000 2.999470 12.000529 0.000000 2.999470 13.000529 0.000000 2.999470 14.000529 0.000000 2.999470 15.000529 0.000000 2.999470 16.000530 0.000000 2.999470 17.000530 0.000000 2.999470 18.000530 0.000000 2.999470 19.000796 0.000000 3.999470 -0.000796 0.000000 3.999470 0.999470 0.000000 3.999470 1.999470 0.000000 3.999470 2.999470 0.000000 3.999469 3.999471 0.000000 3.998947 4.999471 0.000000 3.998952 5.999471 0.000000 3.999464 6.999471 0.000000 3.999470 7.999472 0.000000 3.999464 9.000000 0.000000 3.999470 10.000001 0.000000 3.999470 11.000528 0.000000 3.999470 12.000529 0.000000 3.999470 13.000529 0.000000 3.999470 14.000529 0.000000 3.999470 15.000529 0.000000 3.999470 16.000530 0.000000 3.999470 17.000530 0.000000 3.999470 18.000530 0.000000 3.999470 19.000796 0.000000 4.999471 -0.002821 0.000000 4.999471 0.998399 0.000000 4.999471 1.998420 0.000000 4.999471 2.998426 0.000000 4.999470 3.998931 0.000000 4.998948 4.998943 0.000000 4.998983 5.998952 0.000000 4.999469 6.998964 0.000000 4.999470 7.999471 0.000000 4.999469 8.999471 0.000000 4.999470 9.999471 0.000000 4.999470 11.000001 0.000000 4.999471 12.000529 0.000000 4.999471 13.000529 0.000000 4.999471 14.000529 0.000000 4.999471 15.000529 0.000000 4.999471 16.000530 0.000000 4.999471 17.000530 0.000000 4.999471 18.000530 0.000000 4.999471 19.000796 0.000000 5.999472 -0.001314 0.000000 5.999472 0.998980 0.000000 5.999472 1.999463 0.000000 5.999472 2.999470 0.000000 5.999472 3.999470 0.000000 5.998954 4.999470 0.000000 5.998988 5.999471 0.000000 5.999469 6.999961 0.000000 5.999471 7.999999 0.000000 5.999469 9.000000 0.000000 5.999471 10.000001 0.000000 5.999470 11.000528 0.000000 5.999471 12.000529 0.000000 5.999471 13.000529 0.000000 5.999471 14.000529 0.000000 5.999471 15.000529 0.000000 5.999471 16.000530 0.000000 5.999471 17.000530 0.000000 5.999471 18.000530 0.000000 5.999471 19.000796 0.000000 6.999472 -0.000796 0.000000 6.999472 0.999470 0.000000 6.999472 1.999470 0.000000 6.999472 2.999470 0.000000 6.999472 3.999471 0.000000 6.999462 4.999471 0.000000 6.999462 5.999471 0.000000 6.999470 6.999472 0.000000 6.999471 7.999472 0.000000 6.999470 8.999999 0.000000 6.999471 10.000001 0.000000 6.999471 11.000528 0.000000 6.999471 12.000529 0.000000 6.999471 13.000529 0.000000 6.999471 14.000529 0.000000 6.999471 15.000529 0.000000 6.999471 16.000530 0.000000 6.999471 17.000530 0.000000 6.999471 18.000530 0.000000 6.999471 19.000796 0.000000 7.999472 -0.000796 0.000000 7.999472 0.999470 0.000000 7.999472 1.999470 0.000000 7.999472 2.999470 0.000000 7.999473 3.999471 0.000000 7.999468 4.999471 0.000000 7.999468 5.999471 0.000000 7.999471 6.999471 0.000000 7.999472 7.999472 0.000000 7.999471 8.999999 0.000000 7.999471 10.000001 0.000000 7.999471 11.000528 0.000000 7.999471 12.000529 0.000000 7.999471 13.000529 0.000000 7.999471 14.000529 0.000000 7.999471 15.000529 0.000000 7.999471 16.000530 0.000000 7.999471 17.000530 0.000000 7.999471 18.000530 0.000000 7.999471 19.000796 0.000000 8.999472 -0.000796 0.000000 8.999472 0.999470 0.000000 8.999472 1.999470 0.000000 8.999472 2.999470 0.000000 8.999473 3.999471 0.000000 8.999469 4.999471 0.000000 8.999470 5.999471 0.000000 8.999472 6.999471 0.000000 8.999472 7.999472 0.000000 8.999472 9.000000 0.000000 8.999472 10.000001 0.000000 8.999472 11.000528 0.000000 8.999472 12.000529 0.000000 8.999472 13.000529 0.000000 8.999472 14.000529 0.000000 8.999472 15.000529 0.000000 8.999472 16.000530 0.000000 8.999472 17.000530 0.000000 8.999472 18.000530 0.000000 8.999472 19.000796 0.000000 9.999473 -0.000796 0.000000 9.999473 0.999470 0.000000 9.999473 1.999470 0.000000 9.999473 2.999470 0.000000 9.999473 3.999471 0.000000 9.999471 4.999471 0.000000 9.999471 5.999471 0.000000 9.999473 6.999471 0.000000 9.999472 7.999472 0.000000 9.999472 9.000000 0.000000 9.999472 10.000001 0.000000 9.999472 11.000528 0.000000 9.999472 12.000529 0.000000 9.999472 13.000529 0.000000 9.999472 14.000529 0.000000 9.999472 15.000529 0.000000 9.999472 16.000530 0.000000 9.999472 17.000530 0.000000 9.999472 18.000530 0.000000 9.999472 19.000796 0.000000 10.999473 -0.000796 0.000000 10.999473 0.999470 0.000000 10.999473 1.999470 0.000000 10.999473 2.999470 0.000000 10.999474 3.999471 0.000000 10.999476 4.999471 0.000000 10.999476 5.999471 0.000000 10.999474 6.999471 0.000000 10.999473 7.999472 0.000000 10.999474 9.000000 0.000000 10.999472 10.000001 0.000000 10.999472 11.000528 0.000000 10.999472 12.000529 0.000000 10.999472 13.000529 0.000000 10.999472 14.000529 0.000000 10.999472 15.000529 0.000000 10.999472 16.000530 0.000000 10.999472 17.000530 0.000000 10.999472 18.000530 0.000000 10.999472 19.000796 0.000000 11.999473 -0.000796 0.000000 11.999473 0.999470 0.000000 11.999473 1.999470 0.000000 11.999473 2.999470 0.000000 11.999474 3.999471 0.000000 11.999476 4.999471 0.000000 11.999476 5.999471 0.000000 11.999474 6.999471 0.000000 11.999473 7.999472 0.000000 11.999474 9.000000 0.000000 11.999473 10.000001 0.000000 11.999473 11.000528 0.000000 11.999473 12.000529 0.000000 11.999473 13.000529 0.000000 11.999473 14.000529 0.000000 11.999473 15.000529 0.000000 11.999473 16.000530 0.000000 11.999473 17.000530 0.000000 11.999473 18.000530 0.000000 11.999473 19.000796 0.000000 12.999474 -0.000796 0.000000 12.999474 0.999470 0.000000 12.999474 1.999470 0.000000 12.999474 2.999470 0.000000 12.999474 3.999471 0.000000 12.999476 4.999471 0.000000 12.999476 5.999471 0.000000 12.999475 6.999471 0.000000 12.999474 7.999472 0.000000 12.999475 9.000000 0.000000 12.999473 10.000001 0.000000 12.999473 11.000528 0.000000 12.999473 12.000529 0.000000 12.999473 13.000529 0.000000 12.999473 14.000529 0.000000 12.999473 15.000529 0.000000 12.999473 16.000530 0.000000 12.999473 17.000530 0.000000 12.999473 18.000530 0.000000 12.999473 19.000796 0.000000 13.999474 -0.000796 0.000000 13.999474 0.999470 0.000000 13.999474 1.999470 0.000000 13.999474 2.999470 0.000000 13.999474 3.999471 0.000000 13.999476 4.999471 0.000000 13.999476 5.999471 0.000000 13.999475 6.999471 0.000000 13.999474 7.999472 0.000000 13.999475 9.000000 0.000000 13.999473 10.000001 0.000000 13.999473 11.000528 0.000000 13.999473 12.000529 0.000000 13.999473 13.000529 0.000000 13.999473 14.000529 0.000000 13.999473 15.000529 0.000000 13.999473 16.000530 0.000000 13.999473 17.000530 0.000000 13.999473 18.000530 0.000000 13.999473 19.000796 0.000000 14.999474 -0.000796 0.000000 14.999474 0.999470 0.000000 14.999474 1.999470 0.000000 14.999474 2.999470 0.000000 14.999475 3.999471 0.000000 14.999477 4.999471 0.000000 14.999477 5.999471 0.000000 14.999475 6.999471 0.000000 14.999474 7.999472 0.000000 14.999475 9.000000 0.000000 14.999474 10.000001 0.000000 14.999474 11.000528 0.000000 14.999474 12.000529 0.000000 14.999474 13.000529 0.000000 14.999474 14.000529 0.000000 14.999474 15.000529 0.000000 14.999474 16.000530 0.000000 14.999474 17.000530 0.000000 14.999474 18.000530 0.000000 14.999474 19.000796 0.000000 15.999474 -0.000796 0.000000 15.999474 0.999470 0.000000 15.999474 1.999470 0.000000 15.999474 2.999470 0.000000 15.999475 3.999471 0.000000 15.999477 4.999471 0.000000 15.999477 5.999471 0.000000 15.999476 6.999471 0.000000 15.999474 7.999472 0.000000 15.999476 9.000000 0.000000 15.999475 10.000001 0.000000 15.999475 11.000528 0.000000 15.999475 12.000529 0.000000 15.999475 13.000529 0.000000 15.999475 14.000529 0.000000 15.999474 15.000529 0.000000 15.999474 16.000530 0.000000 15.999474 17.000530 0.000000 15.999474 18.000530 0.000000 15.999474 19.000796 0.000000 16.999475 -0.000796 0.000000 16.999475 0.999470 0.000000 16.999475 1.999470 0.000000 16.999475 2.999470 0.000000 16.999475 3.999471 0.000000 16.999477 4.999471 0.000000 16.999477 5.999471 0.000000 16.999476 6.999471 0.000000 16.999475 7.999472
[...]
      <PointData Vectors="vector">
        <DataArray type="Float32" Name="Velocity" NumberOfComponents="3" format="ascii">
-0.015000 -0.009000 0.000000 -0.015000 -0.006000 0.000000 -0.015000 -0.006000 0.000000 -0.015000 -0.006000 0.000000 -0.021000 -0.006000 0.000000 -0.021000 -0.006000 0.000000 -0.021000 -0.006000 0.000000 -0.021000 -0.006000 0.000000 -0.015000 -0.006000 0.000000 -0.021000 0.000000 0.000000 -0.015000 0.000000 0.000000 -0.015000 0.006000 0.000000 -0.015000 0.006000 0.000000 -0.015000 0.006000 0.000000 -0.015000 0.006000 0.000000 -0.015000 0.006000 0.000000 -0.015000 0.006000 0.000000 -0.015000 0.006000 0.000000 -0.015000 0.006000 0.000000 -0.015000 0.009000 0.000000 -0.006000 -0.009000 0.000000 -0.006000 -0.006000 0.000000 -0.006000 -0.006000 0.000000 -0.006000 -0.006000 0.000000 -0.012000 -0.006000 0.000000 -0.018000 -0.006000 0.000000 -0.018000 -0.006000 0.000000 -0.012000 -0.006000 0.000000 -0.006000 -0.006000 0.000000 -0.012000 0.000000 0.000000 -0.006000 0.000000 0.000000 -0.006000 0.006000 0.000000 -0.006000 0.006000 0.000000 -0.006000 0.006000 0.000000 -0.006000 0.006000 0.000000 -0.006000 0.006000 0.000000 -0.006000 0.006000 0.000000 -0.006000 0.006000 0.000000 -0.006000 0.006000 0.000000 -0.006000 0.009000 0.000000 -0.006000 -0.009000 0.000000 -0.006000 -0.006000 0.000000 -0.006000 -0.006000 0.000000 -0.006000 -0.006000 0.000000 -0.006000 -0.006000 0.000000 -0.012000 -0.006000 0.000000 -0.012000 -0.006000 0.000000 -0.012000 -0.006000 0.000000 -0.006000 -0.006000 0.000000 -0.012000 0.000000 0.000000 -0.006000 0.000000 0.000000 -0.006000 0.006000 0.000000 -0.006000 0.006000 0.000000 -0.006000 0.006000 0.000000 -0.006000 0.006000 0.000000 -0.006000 0.006000 0.000000 -0.006000 0.006000 0.000000 -0.006000 0.006000 0.000000 -0.006000 0.006000 0.000000 -0.006000 0.009000 0.000000 -0.006000 -0.009000 0.000000 -0.006000 -0.006000 0.000000 -0.006000 -0.006000 0.000000 -0.006000 -0.006000 0.000000 -0.006000 -0.006000 0.000000 -0.012000 -0.006000 0.000000 -0.012000 -0.006000 0.000000 -0.012000 -0.006000 0.000000 -0.006000 -0.006000 0.000000 -0.012000 -0.000000 0.000000 -0.006000 -0.000000 0.000000 -0.006000 0.006000 0.000000 -0.006000 0.006000 0.000000 -0.006000 0.006000 0.000000 -0.006000 0.006000 0.000000 -0.006000 0.006000 0.000000 -0.006000 0.006000 0.000000 -0.006000 0.006000 0.000000 -0.006000 0.006000 0.000000 -0.006000 0.009000 0.000000 -0.006000 -0.009000 0.000000 -0.006000 -0.006000 0.000000 -0.006000 -0.006000 0.000000 -0.006000 -0.006000 0.000000 -0.006000 -0.005999 0.000000 -0.012000 -0.006000 0.000000 -0.012000 -0.005999 0.000000 -0.006000 -0.006000 0.000000 -0.006000 -0.006000 0.000000 -0.006000 0.000000 0.000000 -0.006000 0.000000 0.000000 -0.006000 0.006000 0.000000 -0.006000 0.006000 0.000000 -0.006000 0.006000 0.000000 -0.006000 0.006000 0.000000 -0.006000 0.006000 0.000000 -0.006000 0.006000 0.000000 -0.006000 0.006000 0.000000 -0.006000 0.006000 0.000000 -0.006000 0.009000 0.000000 -0.006000 -0.033000 0.000000 -0.006000 -0.018000 0.000000 -0.006000 -0.018000 0.000000 -0.006000 -0.018000 0.000000 -0.006000 -0.012001 0.000000 -0.012001 -0.012001 0.000000 -0.012000 -0.012001 0.000000 -0.006000 -0.012000 0.000000 -0.006000 -0.006000 0.000000 -0.006000 -0.006000 0.000000 -0.006000 -0.006000 0.000000 -0.006000 -0.000000 0.000000 -0.006000 0.006000 0.000000 -0.006000 0.006000 0.000000 -0.006000 0.006000 0.000000 -0.006000 0.006000 0.000000 -0.006000 0.006000 0.000000 -0.006000 0.006000 0.000000 -0.006000 0.006000 0.000000 -0.006000 0.009000 0.000000 -0.006000 -0.015000 0.000000 -0.006000 -0.012000 0.000000 -0.006000 -0.006000 0.000000 -0.006000 -0.006000 0.000000 -0.006000 -0.005999 0.000000 -0.012000 -0.006000 0.000000 -0.012000 -0.005999 0.000000 -0.006000 -0.000000 0.000000 -0.006000 0.000000 0.000000 -0.006000 0.000000 0.000000 -0.006000 0.000000 0.000000 -0.006000 0.006000 0.000000 -0.006000 0.006000 0.000000 -0.006000 0.006000 0.000000 -0.006000 0.006000 0.000000 -0.006000 0.006000 0.000000 -0.006000 0.006000 0.000000 -0.006000 0.006000 0.000000 -0.006000 0.006000 0.000000 -0.006000 0.009000 0.000000 -0.006000 -0.009000 0.000000 -0.006000 -0.006000 0.000000 -0.006000 -0.006000 0.000000 -0.006000 -0.006000 0.000000 -0.006000 -0.006000 0.000000 -0.006000 -0.006000 0.000000 -0.006000 -0.006000 0.000000 -0.006000 -0.006000 0.000000 -0.006000 -0.006000 0.000000 -0.006000 -0.000000 0.000000 -0.006000 0.000000 0.000000 -0.006000 0.006000 0.000000 -0.006000 0.006000 0.000000 -0.006000 0.006000 0.000000 -0.006000 0.006000 0.000000 -0.006000 0.006000 0.000000 -0.006000 0.006000 0.000000 -0.006000 0.006000 0.000000 -0.006000 0.006000 0.000000 -0.006000 0.009000 0.000000 -0.006000 -0.009000 0.000000 -0.006000 -0.006000 0.000000 -0.006000 -0.006000 0.000000 -0.006000 -0.006000 0.000000 -0.006000 -0.006000 0.000000 -0.006000 -0.006000 0.000000 -0.006000 -0.006000 0.000000 -0.006000 -0.006000 0.000000 -0.006000 -0.006000 0.000000 -0.006000 0.000000 0.000000 -0.006000 0.000000 0.000000 -0.006000 0.006000 0.000000 -0.006000 0.006000 0.000000 -0.006000 0.006000 0.000000 -0.006000 0.006000 0.000000 -0.006000 0.006000 0.000000 -0.006000 0.006000 0.000000 -0.006000 0.006000 0.000000 -0.006000 0.006000 0.000000 -0.006000 0.009000 0.000000 -0.006000 -0.009000 0.000000 -0.006000 -0.006000 0.000000 -0.006000 -0.006000 0.000000 -0.006000 -0.006000 0.000000 -0.006000 -0.006000 0.000000 -0.006000 -0.006000 0.000000 -0.006000 -0.006000 0.000000 -0.006000 -0.006000 0.000000 -0.006000 -0.006000 0.000000 -0.006000 0.000000 0.000000 -0.006000 0.000000 0.000000 -0.006000 0.006000 0.000000 -0.006000 0.006000 0.000000 -0.006000 0.006000 0.000000 -0.006000 0.006000 0.000000 -0.006000 0.006000 0.000000 -0.006000 0.006000 0.000000 -0.006000 0.006000 0.000000 -0.006000 0.006000 0.000000 -0.006000 0.009000 0.000000 -0.006000 -0.009000 0.000000 -0.006000 -0.006000 0.000000 -0.006000 -0.006000 0.000000 -0.006000 -0.006000 0.000000 -0.006000 -0.006000 0.000000 -0.006000 -0.006000 0.000000 -0.006000 -0.006000 0.000000 -0.006000 -0.006000 0.000000 -0.006000 -0.006000 0.000000 -0.006000 -0.000000 0.000000 -0.006000 0.000000 0.000000 -0.006000 0.006000 0.000000 -0.006000 0.006000 0.000000 -0.006000 0.006000 0.000000 -0.006000 0.006000 0.000000 -0.006000 0.006000 0.000000 -0.006000 0.006000 0.000000 -0.006000 0.006000 0.000000 -0.006000 0.006000 0.000000 -0.006000 0.009000 0.000000 -0.006000 -0.009000 0.000000 -0.006000 -0.006000 0.000000 -0.006000 -0.006000 0.000000 -0.006000 -0.006000 0.000000 -0.006000 -0.006000 0.000000 -0.006000 -0.006000 0.000000 -0.006000 -0.006000 0.000000 -0.006000 -0.006000 0.000000 -0.006000 -0.006000 0.000000 -0.006000 0.000000 0.000000 -0.006000 0.000000 0.000000 -0.006000 0.006000 0.000000 -0.006000 0.006000 0.000000 -0.006000 0.006000 0.000000 -0.006000 0.006000 0.000000 -0.006000 0.006000 0.000000 -0.006000 0.006000 0.000000 -0.006000 0.006000 0.000000 -0.006000 0.006000 0.000000 -0.006000 0.009000 0.000000 -0.006000 -0.009000 0.000000 -0.006000 -0.006000 0.000000 -0.006000 -0.006000 0.000000 -0.006000 -0.006000 0.000000 -0.006000 -0.006000 0.000000 -0.006000 -0.006000 0.000000 -0.006000 -0.006000 0.000000 -0.006000 -0.006000 0.000000 -0.006000 -0.006000 0.000000 -0.006000 0.000000 0.000000 -0.006000 0.000000 0.000000 -0.006000 0.006000 0.000000 -0.006000 0.006000 0.000000 -0.006000 0.006000 0.000000 -0.006000 0.006000 0.000000 -0.006000 0.006000 0.000000 -0.006000 0.006000 0.000000 -0.006000 0.006000 0.000000 -0.006000 0.006000 0.000000 -0.006000 0.009000 0.000000 -0.006000 -0.009000 0.000000 -0.006000 -0.006000 0.000000 -0.006000 -0.006000 0.000000 -0.006000 -0.006000 0.000000 -0.006000 -0.006000 0.000000 -0.006000 -0.006000 0.000000 -0.006000 -0.006000 0.000000 -0.006000 -0.006000 0.000000 -0.006000 -0.006000 0.000000 -0.006000 0.000000 0.000000 -0.006000 0.000000 0.000000 -0.006000 0.006000 0.000000 -0.006000 0.006000 0.000000 -0.006000 0.006000 0.000000 -0.006000 0.006000 0.000000 -0.006000 0.006000 0.000000 -0.006000 0.006000 0.000000 -0.006000 0.006000 0.000000 -0.006000 0.006000 0.000000 -0.006000 0.009000 0.000000 -0.006000 -0.009000 0.000000 -0.006000 -0.006000 0.000000 -0.006000 -0.006000 0.000000 -0.006000 -0.006000 0.000000 -0.006000 -0.006000 0.000000 -0.006000 -0.006000 0.000000 -0.006000 -0.006000 0.000000 -0.006000 -0.006000 0.000000 -0.006000 -0.006000 0.000000 -0.006000 0.000000 0.000000 -0.006000 0.000000 0.000000 -0.006000 0.006000 0.000000 -0.006000 0.006000 0.000000 -0.006000 0.006000 0.000000 -0.006000 0.006000 0.000000 -0.006000 0.006000 0.000000 -0.006000 0.006000 0.000000 -0.006000 0.006000 0.000000 -0.006000 0.006000 0.000000 -0.006000 0.009000 0.000000 -0.006000 -0.009000 0.000000 -0.006000 -0.006000 0.000000 -0.006000 -0.006000 0.000000 -0.006000 -0.006000 0.000000 -0.006000 -0.006000 0.000000 -0.006000 -0.006000 0.000000 -0.006000 -0.006000 0.000000 -0.006000 -0.006000 0.000000 -0.006000 -0.006000 0.000000 -0.006000 0.000000 0.000000 -0.006000 0.000000 0.000000 -0.006000 0.006000 0.000000 -0.006000 0.006000 0.000000 -0.006000 0.006000 0.000000 -0.006000 0.006000 0.000000 -0.006000 0.006000 0.000000 -0.006000 0.006000 0.000000 -0.006000 0.006000 0.000000 -0.006000 0.006000 0.000000 -0.006000 0.009000 0.000000 -0.006000 -0.009000 0.000000 -0.006000 -0.006000 0.000000 -0.006000 -0.006000 0.000000 -0.006000 -0.006000 0.000000 -0.006000 -0.006000 0.000000 -0.006000 -0.006000 0.000000 -0.006000 -0.006000 0.000000 -0.006000 -0.006000 0.000000 -0.006000 -0.006000 0.000000 -0.006000 0.000000 0.000000 -0.006000 0.000000 0.000000 -0.006000 0.006000 0.000000 -0.006000 0.006000 0.000000 -0.006000 0.006000 0.000000 -0.006000 0.006000 0.000000 -0.006000 0.006000 0.000000 -0.006000 0.006000 0.000000 -0.006000 0.006000 0.000000 -0.006000 0.006000 0.000000 -0.006000 0.009000 0.000000 -0.006000 -0.009000 0.000000 -0.006000 -0.006000 0.000000 -0.006000 -0.006000 0.000000 -0.006000 -0.006000 0.000000 -0.006000 -0.006000 0.000000 -0.006000 -0.006000 0.000000 -0.006000 -0.006000 0.000000 -0.006000 -0.006000 0.000000 -0.006000 -0.006000 0.000000 -0.006000 0.000000 0.000000 -0.006000 0.000000 0.000000 -0.006000 0.006000 0.000000 -0.006000 0.006000 0.000000 -0.006000 0.006000 0.000000 -0.006000 0.006000 0.000000 -0.006000 0.006000 0.000000 -0.006000 0.006000 0.000000 -0.006000 0.006000 0.000000 -0.006000 0.006000 0.000000 -0.006000 0.009000 0.000000 -0.006000 -0.009000 0.000000 -0.006000 -0.006000 0.000000 -0.006000 -0.006000 0.000000 -0.006000 -0.006000 0.000000 -0.006000 -0.006000 0.000000 -0.006000 -0.006000 0.000000 -0.006000 -0.006000 0.000000 -0.006000 -0.006000 0.000000 -0.006000 -0.006000 0.000000 -0.006000 0.000000 0.000000 -0.006000 0.000000 0.000000 -0.006000 0.006000 0.000000 -0.006000 0.006000 0.000000 -0.006000 0.006000 0.000000 -0.006000 0.006000 0.000000 -0.006000 0.006000 0.000000 -0.006000 0.006000 0.000000 -0.006000 0.006000 0.000000 -0.006000 0.006000 0.000000 -0.006000 0.009000 0.000000 -0.006000 -0.009000 0.000000 -0.006000 -0.006000 0.000000 -0.006000 -0.006000 0.000000 -0.006000 -0.006000 0.000000 -0.006000 -0.006000 0.000000 -0.006000 -0.006000 0.000000 -0.006000 -0.006000 0.000000 -0.006000 -0.006000 0.000000 -0.006000 -0.006000 0.000000 -0.006000 0.000000 0.000000 -0.006000 0.000000 0.000000 -0.006000 0.006000 0.000000 -0.006000 0.006000 0.000000 -0.006000 0.006000 0.000000 -0.006000 0.006000 0.000000 -0.006000 0.006000 0.000000 -0.006000 0.006000 0.000000 -0.006000 0.006000 0.000000 -0.006000 0.006000 0.000000 -0.006000 0.009000 0.000000 -0.006000 -0.009000 0.000000 -0.006000 -0.006000 0.000000 -0.006000 -0.006000 0.000000 -0.006000 -0.006000 0.000000 -0.006000 -0.006000 0.000000 -0.006000 -0.006000 0.000000 -0.006000 -0.006000 0.000000 -0.006000 -0.006000 0.000000 -0.006000 -0.006000 0.000000 -0.006000 0.000000 0.000000 -0.006000 0.000000 0.000000 -0.006000 0.006000 0.000000 -0.006000 0.006000 0.000000 -0.006000 0.006000 0.000000 -0.006000 0.006000 0.000000 -0.006000 0.006000 0.000000 -0.006000 0.006000 0.000000 -0.006000 0.006000 0.000000 -0.006000 0.006000 0.000000 -0.006000 0.009000 0.000000 -0.006000 -0.009000 0.000000 -0.006000 -0.006000 0.000000 -0.006000 -0.006000 0.000000 -0.006000 -0.006000 0.000000 -0.006000 -0.006000 0.000000 -0.006000 -0.006000 0.000000 -0.006000 -0.006000 0.000000 -0.006000 -0.006000 0.000000 -0.006000 -0.006000 0.000000 -0.006000 0.000000 0.000000 -0.006000 0.000000 0.000000 -0.006000 0.006000 0.000000 -0.006000 0.006000 0.000000 -0.006000 0.006000 0.000000 -0.006000 0.006000 0.000000 -0.006000 0.006000 0.000000 -0.006000 0.006000 0.000000 -0.006000 0.006000 0.000000 -0.006000 0.006000 0.000000 -0.006000 0.009000 0.000000 -0.006000 -0.009000 0.000000 -0.006000 -0.006000 0.000000 -0.006000 -0.006000 0.000000 -0.006000 -0.006000 0.000000 -0.006000 -0.006000 0.000000 -0.006000 -0.006000 0.000000 -0.006000 -0.006000 0.000000 -0.006000 -0.006000 0.000000 -0.006000 -0.006000 0.000000 -0.006000 0.000000 0.000000 -0.006000 0.000000 0.000000 -0.006000 0.006000 0.000000 -0.006000 0.006000 0.000000 -0.006000 0.006000 0.000000 -0.006000 0.006000 0.000000 -0.006000 0.006000 0.000000 -0.006000 0.006000 0.000000 -0.006000 0.006000 0.000000 -0.006000 0.006000 0.000000 -0.006000 0.009000 0.000000 -0.006000 -0.009000 0.000000 -0.006000 -0.006000 0.000000 -0.006000 -0.006000 0.000000 -0.006000 -0.006000 0.000000 -0.006000 -0.006000 0.000000 -0.006000 -0.006000 0.000000 -0.006000 -0.006000 0.000000 -0.006000 -0.006000 0.000000 -0.006000 -0.006000 0.000000 -0.006000 0.000000 0.000000 -0.006000 0.000000 0.000000 -0.006000 0.006000 0.000000 -0.006000 0.006000 0.000000 -0.006000 0.006000 0.000000 -0.006000 0.006000 0.000000 -0.006000 0.006000 0.000000 -0.006000 0.006000 0.000000 -0.006000 0.006000 0.000000 -0.006000 0.006000 0.000000 -0.006000 0.009000 0.000000 -0.006000 -0.009000 0.000000 -0.006000 -0.006000 0.000000 -0.006000 -0.006000 0.000000 -0.006000 -0.006000 0.000000 -0.006000 -0.006000 0.000000 -0.006000 -0.006000 0.000000 -0.006000 -0.006000 0.000000 -0.006000 -0.006000 0.000000 -0.006000 -0.006000 0.000000 -0.006000 0.000000 0.000000 -0.006000 0.000000 0.000000 -0.006000 0.006000 0.000000 -0.006000 0.006000 0.000000 -0.006000 0.006000 0.000000 -0.006000 0.006000 0.000000 -0.006000 0.006000 0.000000 -0.006000 0.006000 0.000000 -0.006000 0.006000 0.000000 -0.006000 0.006000 0.000000 -0.006000 0.009000 0.000000 -0.006000 -0.009000 0.000000 -0.006000 -0.006000 0.000000 -0.006000 -0.006000 0.000000 -0.006000 -0.006000 0.000000 -0.006000 -0.006000 0.000000 -0.006000 -0.006000 0.000000 -0.006000 -0.006000 0.000000 -0.006000 -0.006000 0.000000 -0.006000 -0.006000 0.000000 -0.006000 0.000000 0.000000 -0.006000 0.000000 0.000000 -0.006000 0.006000 0.000000 -0.006000 0.006000 0.000000 -0.006000 0.006000 0.000000 -0.006000 0.006000 0.000000 -0.006000 0.006000 0.000000 -0.006000 0.006000 0.000000 -0.006000 0.006000 0.000000 -0.006000 0.006000 0.000000 -0.006000 0.009000 0.000000 -0.006000 -0.009000 0.000000 -0.006000 -0.006000 0.000000 -0.006000 -0.006000 0.000000 -0.006000 -0.006000 0.000000 -0.006000 -0.006000 0.000000 -0.006000 -0.006000 0.000000 -0.006000 -0.006000 0.000000 -0.006000 -0.006000 0.000000 -0.006000 -0.006000 0.000000 -0.006000 0.000000 0.000000 -0.006000 0.000000 0.000000 -0.006000 0.006000 0.000000 -0.006000 0.006000 0.000000 -0.006000 0.006000 0.000000 -0.006000 0.006000 0.000000 -0.006000 0.006000 0.000000 -0.006000 0.006000 0.000000 -0.006000 0.006000 0.000000 -0.006000 0.006000 0.000000 -0.006000 0.009000 0.000000 -0.006000 -0.009000 0.000000 -0.006000 -0.006000 0.000000 -0.006000 -0.006000 0.000000 -0.006000 -0.006000 0.000000 -0.006000 -0.006000 0.000000 -0.006000 -0.006000 0.000000 -0.006000 -0.006000 0.000000 -0.006000 -0.006000 0.000000 -0.006000 -0.006000 0.000000 -0.006000 0.000000 0.000000 -0.006000 0.000000 0.000000 -0.006000 0.006000 0.000000 -0.006000 0.006000 0.000000 -0.006000 0.006000 0.000000 -0.006000 0.006000 0.000000 -0.006000 0.006000 0.000000 -0.006000 0.006000 0.000000 -0.006000 0.006000 0.000000 -0.006000 0.006000 0.000000 -0.006000 0.009000 0.000000 -0.006000 -0.009000 0.000000 -0.006000 -0.006000 0.000000 -0.006000 -0.006000 0.000000 -0.006000 -0.006000 0.000000 -0.006000 -0.006000 0.000000 -0.006000 -0.006000 0.000000 -0.006000 -0.006000 0.000000 -0.006000 -0.006000 0.000000 -0.006000 -0.006000 0.000000 -0.006000 0.000000 0.000000 -0.006000 0.000000 0.000000 -0.006000 0.006000 0.000000 -0.006000 0.006000 0.000000 -0.006000 0.006000 0.000000 -0.006000 0.006000 0.000000 -0.006000 0.006000 0.000000 -0.006000 0.006000 0.000000 -0.006000 0.006000 0.000000 -0.006000 0.006000 0.000000 -0.006000 0.009000 0.000000 -0.006000 -0.009000 0.000000 -0.006000 -0.006000 0.000000 -0.006000 -0.006000 0.000000 -0.006000 -0.006000 0.000000 -0.006000 -0.006000 0.000000 -0.006000 -0.006000 0.000000 -0.006000 -0.006000 0.000000 -0.006000 -0.006000 0.000000 -0.006000 -0.006000 0.000000 -0.006000 0.000000 0.000000 -0.006000 0.000000 0.000000 -0.006000 0.006000 0.000000 -0.006000 0.006000 0.000000 -0.006000 0.006000 0.000000 -0.006000 0.006000 0.000000 -0.006000 0.006000 0.000000 -0.006000 0.006000 0.000000 -0.006000 0.006000 0.000000 -0.006000 0.006000 0.000000 -0.006000 0.009000 0.000000 -0.006000 -0.009000 0.000000 -0.006000 -0.006000 0.000000 -0.006000 -0.006000 0.000000 -0.006000 -0.006000 0.000000 -0.006000 -0.006000 0.000000 -0.006000 -0.006000 0.000000 -0.006000 -0.006000 0.000000 -0.006000 -0.006000 0.000000 -0.006000 -0.006000 0.000000 -0.006000 0.000000 0.000000 -0.006000 0.000000 0.000000 -0.006000 0.006000 0.000000 -0.006000 0.006000 0.000000 -0.006000 0.006000 0.000000 -0.006000 0.006000 0.000000 -0.006000 0.006000 0.000000 -0.006000 0.006000 0.000000 -0.006000 0.006000 0.000000 -0.006000 0.006000 0.000000 -0.006000 0.009000 0.000000 -0.006000 -0.009000 0.000000 -0.006000 -0.006000 0.000000 -0.006000 -0.006000 0.000000 -0.006000 -0.006000 0.000000 -0.006000 -0.006000 0.000000 -0.006000 -0.006000 0.000000 -0.006000 -0.006000 0.000000 -0.006000 -0.006000 0.000000 -0.006000 -0.006000 0.000000 -0.006000 0.000000 0.000000 -0.006000 0.000000 0.000000 -0.006000 0.006000 0.000000 -0.006000 0.006000 0.000000 -0.006000 0.006000 0.000000 -0.006000 0.006000 0.000000 -0.006000 0.006000 0.000000 -0.006000 0.006000 0.000000 -0.006000 0.006000 0.000000 -0.006000 0.006000 0.000000 -0.006000 0.009000 0.000000 -0.006000 -0.009000 0.000000 -0.006000 -0.006000 0.000000 -0.006000 -0.006000 0.000000 -0.006000 -0.006000 0.000000 -0.006000 -0.006000 0.000000 -0.006000 -0.006000 0.000000 -0.006000 -0.006000 0.000000 -0.006000 -0.006000 0.000000 -0.006000 -0.006000 0.000000 -0.006000 0.000000 0.000000 -0.006000 0.000000 0.000000 -0.006000 0.006000 0.000000 -0.006000 0.006000 0.000000 -0.006000 0.006000 0.000000 -0.006000 0.006000 0.000000 -0.006000 0.006000 0.000000 -0.006000 0.006000 0.000000 -0.006000 0.006000 0.000000 -0.006000 0.006000 0.000000 -0.006000 0.009000 0.000000 -0.006000 -0.009000 0.000000 -0.006000 -0.006000 0.000000 -0.006000 -0.006000 0.000000 -0.006000 -0.006000 0.000000 -0.006000 -0.006000 0.000000 0.000000 -0.006000 0.000000 0.000000 -0.006000 0.000000 -0.006000 -0.006000 0.000000 -0.006000 -0.006000 0.000000 -0.006000 0.000000 0.000000 -0.006000 0.000000 0.000000 -0.006000 0.006000 0.000000 -0.006000 0.006000 0.000000 -0.006000 0.006000 0.000000 -0.006000 0.006000 0.000000 -0.006000 0.006000 0.000000 -0.006000 0.006000 0.000000 -0.006000 0.006000 0.000000 -0.006000 0.006000 0.000000 -0.006000 0.009000 0.000000 -0.006000 -0.009000 0.000000 -0.006000 -0.006000 0.000000 -0.006000 -0.006000 0.000000 -0.006000 -0.006000 0.000000 -0.006000 -0.006000 0.000000 0.000000 -0.006000 0.000000 0.000000 -0.006000 0.000000 -0.006000 -0.006000 0.000000 -0.006000 -0.006000 0.000000 -0.006000 0.000000 0.000000 -0.006000 0.000000 0.000000 -0.006000 0.006000 0.000000 -0.006000 0.006000 0.000000 -0.006000 0.006000 0.000000 -0.006000 0.006000 0.000000 -0.006000 0.006000 0.000000 -0.006000 0.006000 0.000000 -0.006000 0.006000 0.000000 -0.006000 0.006