<VTKFile type="UnstructuredGrid" version="0.1" byte_order="LittleEndian">
  <UnstructuredGrid>
    <Piece NumberOfPoints="2000" NumberOfCells="0">
      <Points>
        <DataArray name="Position" type="Float32" NumberOfComponents="3" format="ascii">
-0.009061 -0.005440 0.000000 -0.015057 0.996374 0.000000 -0.009209 1.996374 0.000000 -0.027974 2.996374 0.000000 -0.047735 3.996374 0.000000 -0.012654 4.996375 0.000000 -0.069888 5.996375 0.000000 -0.012675 6.996375 0.000000 -0.084875 7.996376 0.000000 -0.012674 9.000000 0.000000 -0.009889 10.000001 0.000000 -0.104512 11.003624 0.000000 -0.009049 12.003625 0.000000 -0.009049 13.003625 0.000000 -0.083849 14.003625 0.000000 -0.009043 15.003625 0.000000 -0.009043 16.003626 0.000000 -0.174543 17.003626 0.000000 -0.073841 18.003626 0.000000 -0.225681 19.005440 0.000000 0.991120 -0.005440 0.000000 0.984999 0.995966 0.000000 0.991012 1.996374 0.000000 0.974851 2.996430 0.000000 0.955282 3.996733 0.000000 0.989165 4.996375 0.000000 0.932164 5.996375 0.000000 0.990583 6.996375 0.000000 0.915410 7.996350 0.000000 0.990834 9.000000 0.000000 0.990557 10.000001 0.000000 0.897489 11.003624 0.000000 0.992846 12.003625 0.000000 0.994146 13.003625 0.000000 0.916327 14.003625 0.000000 0.993307 15.003626 0.000000 0.993892 16.003626 0.000000 0.826001 17.003626 0.000000 0.928172 18.003626 0.000000 0.777809 19.005439 0.000000 1.991603 -0.005440 0.000000 1.985379 0.995471 0.000000 1.994290 1.996374 0.000000 1.975307 2.996386 0.000000 1.963949 3.996376 0.000000 1.991034 4.996374 0.000000 1.932500 5.996355 0.000000 1.990613 6.996375 0.000000 1.915774 7.997114 0.000000 1.990855 9.000000 0.000000 1.990561 10.000001 0.000000 1.897653 11.003656 0.000000 1.992868 12.003625 0.000000 1.994167 13.003625 0.000000 1.916815 14.003624 0.000000 1.993396 15.003625 0.000000 1.993918 16.003626 0.000000 1.826173 17.003626 0.000000 1.929094 18.003632 0.000000 1.778276 19.005470 0.000000 2.991617 -0.005572 0.000000 2.986136 0.994644 0.000000 2.995302 1.994941 0.000000 2.975864 2.995656 0.000000 2.965070 3.995925 0.000000 2.991046 4.996905 0.000000 2.932877 5.996750 0.000000 2.992753 6.997812 0.000000 2.915930 7.998116 0.000000 2.991059 9.000000 0.000000 2.990581 10.000001 0.000000 2.901600 11.003222 0.000000 2.992869 12.003626 0.000000 2.994173 13.003635 0.000000 2.917008 14.003642 0.000000 2.993449 15.003626 0.000000 2.993918 16.004634 0.000000 2.826209 17.003625 0.000000 2.929860 18.003372 0.000000 2.779284 19.004833 0.000000 3.992115 -0.007266 0.000000 3.986597 0.993759 0.000000 3.995308 1.994063 0.000000 3.976259 2.994027 0.000000 3.965844 3.995888 0.000000 3.992462 4.998873 0.000000 3.933084 5.999649 0.000000 3.992768 7.000392 0.000000 3.916558 8.001479 0.000000 3.992753 9.000011 0.000000 3.990582 10.000018 0.000000 3.901589 11.000769 0.000000 3.994609 12.003625 0.000000 3.995259 13.003625 0.000000 3.917016 14.003624 0.000000 3.993478 15.003626 0.000000 3.995132 16.003626 0.000000 3.826327 17.003628 0.000000 3.930973 18.005100 0.000000 3.779778 19.008618 0.000000 4.992064 -0.020079 0.000000 4.986615 0.984232 0.000000 4.996247 1.989088 0.000000 4.977618 2.988929 0.000000 4.966835 3.991263 0.000000 4.992740 4.991084 0.000000 4.933331 5.989724 0.000000 4.992989 6.990617 0.000000 4.916521 7.988935 0.000000 4.992755 8.996350 0.000000 4.990599 9.999216 0.000000 4.903484 10.998185 0.000000 4.994609 12.003625 0.000000 4.995259 13.003625 0.000000 4.918473 14.003625 0.000000 4.993490 15.003625 0.000000 4.995132 16.003626 0.000000 4.826574 17.003624 0.000000 4.932419 18.002878 0.000000 4.782006 19.003921 0.000000 5.992039 -0.008849 0.000000 5.986676 0.993164 0.000000 5.996377 1.993573 0.000000 5.977969 2.994058 0.000000 5.967096 3.997327 0.000000 5.993086 4.997205 0.000000 5.933306 5.999977 0.000000 5.992997 7.000255 0.000000 5.916519 8.002218 0.000000 5.992760 9.000924 0.000000 5.991369 10.000984 0.000000 5.904045 11.003708 0.000000 5.994617 12.003625 0.000000 5.995267 13.003625 0.000000 5.919481 14.003619 0.000000 5.993528 15.003626 0.000000 5.995143 16.003626 0.000000 5.827186 17.003629 0.000000 5.932980 18.005496 0.000000 5.782140 19.008664 0.000000 6.992527 -0.007504 0.000000 6.986952 0.993578 0.000000 6.996377 1.994476 0.000000 6.978994 2.995048 0.000000 6.967495 3.995206 0.000000 6.994212 4.997718 0.000000 6.933455 5.998567 0.000000 6.994996 6.999125 0.000000 6.916510 7.999531 0.000000 6.995865 8.999999 0.000000 6.993452 10.000001 0.000000 6.904129 11.002948 0.000000 6.994631 12.003625 0.000000 6.995283 13.003644 0.000000 6.920004 14.003666 0.000000 6.993511 15.003626 0.000000 6.995152 16.004569 0.000000 6.828602 17.003625 0.000000 6.932992 18.003124 0.000000 6.782243 19.004568 0.000000 7.992535 -0.005385 0.000000 7.986956 0.994838 0.000000 7.996377 1.995560 0.000000 7.979110 2.995789 0.000000 7.967543 3.996017 0.000000 7.994461 4.996912 0.000000 7.933171 5.996472 0.000000 7.995317 6.997173 0.000000 7.916500 7.997668 0.000000 7.996365 8.999999 0.000000 7.993460 10.000001 0.000000 7.904511 11.003700 0.000000 7.996363 12.003625 0.000000 7.996363 13.003625 0.000000 7.920107 14.003618 0.000000 7.993444 15.003625 0.000000 7.996360 16.003626 0.000000 7.828886 17.003626 0.000000 7.934089 18.003653 0.000000 7.783367 19.005525 0.000000 8.993061 -0.005440 0.000000 8.986999 0.995812 0.000000 8.996378 1.996375 0.000000 8.979236 2.996405 0.000000 8.967565 3.996390 0.000000 8.996366 4.997011 0.000000 8.933220 5.996365 0.000000 8.996012 6.996375 0.000000 8.916473 7.995747 0.000000 8.996370 9.000000 0.000000 8.993465 10.000001 0.000000 8.904765 11.003622 0.000000 8.996374 12.003625 0.000000 8.996372 13.003625 0.000000 8.920353 14.003625 0.000000 8.993416 15.003626 0.000000 8.996372 16.003626 0.000000 8.829026 17.003626 0.000000 8.934505 18.003626 0.000000 8.783735 19.005435 0.000000 9.993574 -0.005440 0.000000 9.987218 0.996379 0.000000 9.996378 1.996374 0.000000 9.981266 2.996374 0.000000 9.967416 3.996374 0.000000 9.996372 4.996375 0.000000 9.933232 5.996375 0.000000 9.996363 6.996375 0.000000 9.916474 7.996406 0.000000 9.996372 9.000000 0.000000 9.993467 10.000001 0.000000 9.904912 11.003624 0.000000 9.996374 12.003625 0.000000 9.996374 13.003625 0.000000 9.921165 14.003625 0.000000 9.993388 15.003625 0.000000 9.996374 16.003626 0.000000 9.829191 17.003626 0.000000 9.934677 18.003626 0.000000 9.783922 19.005440 0.000000 10.993604 -0.005440 0.000000 10.987734 0.996374 0.000000 10.996379 1.996374 0.000000 10.982283 2.996374 0.000000 10.967398 3.996375 0.000000 10.996380 4.996375 0.000000 10.933246 5.996375 0.000000 10.996380 6.996375 0.000000 10.916462 7.996374 0.000000 10.996378 9.000000 0.000000 10.993467 10.000001 0.000000 10.905269 11.003624 0.000000 10.996375 12.003625 0.000000 10.996375 13.003625 0.000000 10.922385 14.003625 0.000000 10.993349 15.003625 0.000000 10.996375 16.003626 0.000000 10.829248 17.003626 0.000000 10.936455 18.003626 0.000000 10.786105 19.005440 0.000000 11.993606 -0.005440 0.000000 11.988303 0.996374 0.000000 11.996379 1.996374 0.000000 11.982992 2.996374 0.000000 11.967400 3.996374 0.000000 11.996380 4.996375 0.000000 11.933267 5.996375 0.000000 11.996380 6.996375 0.000000 11.916472 7.996376 0.000000 11.996378 9.000000 0.000000 11.993469 10.000001 0.000000 11.905809 11.003624 0.000000 11.996375 12.003625 0.000000 11.996375 13.003625 0.000000 11.923288 14.003625 0.000000 11.993305 15.003625 0.000000 11.996375 16.003626 0.000000 11.829812 17.003626 0.000000 11.937132 18.003626 0.000000 11.786756 19.005440 0.000000 12.994110 -0.005440 0.000000 12.988824 0.996374 0.000000 12.996379 1.996374 0.000000 12.983038 2.996374 0.000000 12.966836 3.996375 0.000000 12.996380 4.996375 0.000000 12.933267 5.996375 0.000000 12.996380 6.996375 0.000000 12.916452 7.996376 0.000000 12.996379 9.000000 0.000000 12.996361 10.000001 0.000000 12.906180 11.003624 0.000000 12.996375 12.003625 0.000000 12.996375 13.003625 0.000000 12.924645 14.003625 0.000000 12.993318 15.003625 0.000000 12.996375 16.003626 0.000000 12.830057 17.003626 0.000000 12.937579 18.003626 0.000000 12.786786 19.005440 0.000000 13.994111 -0.005440 0.000000 13.988845 0.996374 0.000000 13.996380 1.996374 0.000000 13.983600 2.996374 0.000000 13.967248 3.996375 0.000000 13.996380 4.996375 0.000000 13.933299 5.996375 0.000000 13.996380 6.996375 0.000000 13.916481 7.996376 0.000000 13.996379 9.000000 0.000000 13.996371 10.000001 0.000000 13.906176 11.003624 0.000000 13.996375 12.003625 0.000000 13.996375 13.003625 0.000000 13.925182 14.003625 0.000000 13.993330 15.003625 0.000000 13.996375 16.003626 0.000000 13.830158 17.003626 0.000000 13.938061 18.003626 0.000000 13.787324 19.005440 0.000000 14.994112 -0.005440 0.000000 14.989344 0.996374 0.000000 14.996380 1.996374 0.000000 14.983929 2.996374 0.000000 14.966699 3.996375 0.000000 14.996381 4.996375 0.000000 14.933302 5.996375 0.000000 14.996381 6.996375 0.000000 14.916320 7.996376 0.000000 14.996379 9.000000 0.000000 14.996371 10.000001 0.000000 14.906173 11.003624 0.000000 14.996379 12.003625 0.000000 14.996379 13.003625 0.000000 14.925729 14.003625 0.000000 14.993300 15.003625 0.000000 14.996376 16.003626 0.000000 14.830218 17.003626 0.000000 14.938547 18.003626 0.000000 14.787622 19.005440 0.000000 15.994121 -0.005440 0.000000 15.989356 0.996374 0.000000 15.996380 1.996374 0.000000 15.984000 2.996374 0.000000 15.966599 3.996375 0.000000 15.996381 4.996375 0.000000 15.933284 5.996375 0.000000 15.996381 6.996375 0.000000 15.916320 7.996376 0.000000 15.996380 9.000000 0.000000 15.996374 10.000001 0.000000 15.906223 11.003624 0.000000 15.996381 12.003625 0.000000 15.996381 13.003625 0.000000 15.926823 14.003625 0.000000 15.993298 15.003625 0.000000 15.996376 16.003626 0.000000 15.830755 17.003626 0.000000 15.941078 18.003626 0.000000 15.787777 19.005440 0.000000 16.994630 -0.005440 0.000000 16.989368 0.996374 0.000000 16.996381 1.996374 0.000000 16.984209 2.996374 0.000000 16.966447 3.996375 0.000000 16.996381 4.996375 0.000000 16.933300 5.996375 0.000000 16.996381 6.996375 0.000000 16.916316 7.996376
[...]
      <PointData Vectors="vector">
        <DataArray type="Float32" Name="Velocity" NumberOfComponents="3" format="ascii">
-0.015000 -0.009000 0.000000 -0.129001 -0.005989 0.000000 -0.021000 -0.006000 0.000000 -0.297007 -0.006006 0.000000 -0.453076 -0.006002 0.000000 -0.021000 -0.006000 0.000000 -0.771095 -0.006000 0.000000 -0.021000 -0.006000 0.000000 -0.819017 -0.005996 0.000000 -0.021000 0.000000 0.000000 -0.021000 0.000000 0.000000 -0.801022 0.006000 0.000000 -0.015000 0.006000 0.000000 -0.015000 0.006000 0.000000 -0.543012 0.006000 0.000000 -0.015000 0.006000 0.000000 -0.015000 0.006000 0.000000 -1.137022 0.006000 0.000000 -0.843012 0.006000 0.000000 -1.293025 0.009000 0.000000 -0.066000 -0.009000 0.000000 -0.131992 -0.011910 0.000000 -0.012004 -0.006000 0.000000 -0.257938 -0.005981 0.000000 -0.396080 0.000002 0.000000 -0.018000 -0.006000 0.000000 -0.774047 -0.005991 0.000000 -0.018000 -0.006000 0.000000 -0.870005 -0.006542 0.000000 -0.018000 0.000000 0.000000 -0.018000 0.000000 0.000000 -0.786002 0.005996 0.000000 -0.018000 0.006000 0.000000 -0.018000 0.006000 0.000000 -0.546013 0.006000 0.000000 -0.258003 0.006000 0.000000 -0.018000 0.006000 0.000000 -1.122005 0.006000 0.000000 -0.780010 0.005999 0.000000 -1.224033 0.008992 0.000000 -0.060000 -0.009000 0.000000 -0.113998 -0.011764 0.000000 -0.017979 -0.005995 0.000000 -0.246042 -0.005717 0.000000 -0.311941 -0.005972 0.000000 -0.017997 -0.006000 0.000000 -0.744022 -0.006457 0.000000 -0.018000 -0.006000 0.000000 -0.786023 -0.001854 0.000000 -0.018000 0.000000 0.000000 -0.018000 0.000000 0.000000 -0.786051 0.006405 0.000000 -0.018000 0.006000 0.000000 -0.018000 0.006000 0.000000 -0.533988 0.005987 0.000000 -0.186004 0.006000 0.000000 -0.018000 0.006000 0.000000 -1.134029 0.006001 0.000000 -0.708014 0.006125 0.000000 -1.182034 0.009370 0.000000 -0.059975 -0.014751 0.000000 -0.108026 -0.005986 0.000000 -0.011971 -0.011985 0.000000 -0.240041 -0.010687 0.000000 -0.642182 -0.010958 0.000000 -0.017983 -0.000009 0.000000 -0.744036 -0.005842 0.000000 -0.011998 -0.000007 0.000000 -0.821996 -0.002799 0.000000 -0.018000 -0.000000 0.000000 -0.018000 -0.000000 0.000000 -0.753005 0.005275 0.000000 -0.017990 0.006000 0.000000 -0.017966 0.006000 0.000000 -0.534064 0.006029 0.000000 -0.179969 0.006000 0.000000 -0.018003 0.012000 0.000000 -1.128005 0.005995 0.000000 -0.726030 0.002679 0.000000 -1.182035 0.003508 0.000000 -0.053987 -0.012912 0.000000 -0.096018 -0.014298 0.000000 -0.011952 -0.005912 0.000000 -0.233994 -0.010259 0.000000 -0.563906 0.000301 0.000000 -0.018013 0.000080 0.000000 -0.743937 0.017574 0.000000 -0.011909 0.012027 0.000000 -0.809992 0.031485 0.000000 -0.012000 0.000032 0.000000 -0.018000 0.000039 0.000000 -0.747025 -0.000871 0.000000 -0.012000 0.006000 0.000000 -0.012000 0.006000 0.000000 -0.534000 0.005984 0.000000 -0.168037 0.006000 0.000000 -0.012000 0.006000 0.000000 -1.134022 0.006013 0.000000 -0.666008 0.013392 0.000000 -1.164098 0.027073 0.000000 -0.054000 -0.035604 0.000000 -0.102000 -0.034428 0.000000 -0.012000 -0.018131 0.000000 -0.203949 -0.045751 0.000000 -0.389961 -0.028094 0.000000 -0.011593 -0.030129 0.000000 -0.637038 -0.062435 0.000000 -0.009724 -0.036043 0.000000 -0.846052 -0.073659 0.000000 -0.012000 -0.006065 0.000000 -0.018000 -0.000093 0.000000 -0.684198 -0.016477 0.000000 -0.012000 0.006000 0.000000 -0.012000 0.006000 0.000000 -0.510033 0.005999 0.000000 -0.185980 0.005999 0.000000 -0.012000 0.006000 0.000000 -1.097993 0.005982 0.000000 -0.624034 -0.003568 0.000000 -1.146157 -0.005129 0.000000 -0.054014 -0.012687 0.000000 -0.102016 -0.007854 0.000000 -0.006000 -0.011880 0.000000 -0.192085 -0.009763 0.000000 -0.288167 0.010616 0.000000 -0.006012 -0.005929 0.000000 -0.726302 0.019519 0.000000 -0.017822 0.012050 0.000000 -0.909304 0.036627 0.000000 -0.011987 0.006033 0.000000 -0.012003 0.000054 0.000000 -0.660657 0.015182 0.000000 -0.011999 0.006000 0.000000 -0.012000 0.006000 0.000000 -0.509978 0.005946 0.000000 -0.254993 0.006000 0.000000 -0.012000 0.006000 0.000000 -1.086024 0.006022 0.000000 -0.624022 0.017242 0.000000 -1.127940 0.029569 0.000000 -0.047999 -0.015054 0.000000 -0.096000 -0.012449 0.000000 -0.006000 -0.011999 0.000000 -0.185964 -0.011482 0.000000 -0.413996 -0.012615 0.000000 -0.018018 0.000000 0.000000 -0.711060 0.003937 0.000000 -0.018000 0.000018 0.000000 -0.785899 0.002454 0.000000 -0.018000 -0.000000 0.000000 -0.012000 -0.000000 0.000000 -0.683283 0.001504 0.000000 -0.011973 0.006000 0.000000 -0.011959 0.006000 0.000000 -0.498091 0.006117 0.000000 -0.228010 0.006001 0.000000 -0.012002 0.012000 0.000000 -1.056042 0.005986 0.000000 -0.636130 -0.000332 0.000000 -1.122030 0.000640 0.000000 -0.048001 -0.008386 0.000000 -0.096000 -0.011813 0.000000 -0.006000 -0.011975 0.000000 -0.192030 -0.011005 0.000000 -0.414104 -0.009654 0.000000 -0.005901 -0.000010 0.000000 -0.693256 -0.007976 0.000000 -0.017968 -0.000031 0.000000 -0.780331 -0.001893 0.000000 -0.006000 0.000000 0.000000 -0.012000 0.000000 0.000000 -0.660198 0.007018 0.000000 -0.006000 0.006000 0.000000 -0.006000 0.006000 0.000000 -0.498010 0.005935 0.000000 -0.095939 0.005999 0.000000 -0.006000 0.006000 0.000000 -1.056029 0.006003 0.000000 -0.636033 0.006476 0.000000 -1.092134 0.010034 0.000000 -0.042000 -0.009000 0.000000 -0.090001 -0.011146 0.000000 -0.005996 -0.005992 0.000000 -0.186013 -0.005586 0.000000 -0.398957 -0.005508 0.000000 -0.005982 -0.000000 0.000000 -0.629769 -0.006333 0.000000 -0.006000 -0.006005 0.000000 -0.872539 -0.015332 0.000000 -0.006000 0.000000 0.000000 -0.012000 0.000000 0.000000 -0.642178 0.005968 0.000000 -0.006000 0.006000 0.000000 -0.006000 0.006000 0.000000 -0.498011 0.006002 0.000000 -0.144028 0.006000 0.000000 -0.006000 0.006000 0.000000 -1.037991 0.006000 0.000000 -0.590554 0.005987 0.000000 -1.098076 0.008940 0.000000 -0.036001 -0.009000 0.000000 -0.095999 -0.005934 0.000000 -0.006000 -0.006000 0.000000 -0.143956 -0.006009 0.000000 -0.420025 -0.006024 0.000000 -0.006000 -0.006000 0.000000 -0.719967 -0.005997 0.000000 -0.006000 -0.006000 0.000000 -0.795013 -0.005219 0.000000 -0.006000 -0.000000 0.000000 -0.012000 0.000000 0.000000 -0.707772 0.006000 0.000000 -0.006000 0.006000 0.000000 -0.006000 0.006000 0.000000 -0.486010 0.006000 0.000000 -0.174020 0.006000 0.000000 -0.006000 0.006000 0.000000 -1.026026 0.006000 0.000000 -0.544674 0.006000 0.000000 -1.109825 0.009002 0.000000 -0.035999 -0.009000 0.000000 -0.090000 -0.006000 0.000000 -0.006000 -0.006000 0.000000 -0.137930 -0.006000 0.000000 -0.567227 -0.005999 0.000000 -0.006000 -0.006000 0.000000 -0.792351 -0.006000 0.000000 -0.006000 -0.006000 0.000000 -0.942390 -0.006057 0.000000 -0.006000 0.000000 0.000000 -0.012000 0.000000 0.000000 -0.653995 0.006000 0.000000 -0.006000 0.006000 0.000000 -0.006000 0.006000 0.000000 -0.473979 0.006000 0.000000 -0.125982 0.006000 0.000000 -0.006000 0.006000 0.000000 -1.026020 0.006000 0.000000 -0.564517 0.006000 0.000000 -1.068091 0.009000 0.000000 -0.036001 -0.009000 0.000000 -0.084000 -0.006000 0.000000 -0.006000 -0.006000 0.000000 -0.120018 -0.006000 0.000000 -0.549101 -0.006000 0.000000 -0.006000 -0.006000 0.000000 -0.771017 -0.006000 0.000000 -0.006000 -0.006000 0.000000 -0.842790 -0.005998 0.000000 -0.006000 0.000000 0.000000 -0.012000 0.000000 0.000000 -0.672500 0.006000 0.000000 -0.006000 0.006000 0.000000 -0.006000 0.006000 0.000000 -0.468015 0.006000 0.000000 -0.146978 0.006000 0.000000 -0.006000 0.006000 0.000000 -1.014040 0.006000 0.000000 -0.587047 0.006000 0.000000 -1.038089 0.009000 0.000000 -0.029999 -0.009000 0.000000 -0.078001 -0.006000 0.000000 -0.006000 -0.006000 0.000000 -0.132009 -0.006000 0.000000 -0.483157 -0.006000 0.000000 -0.006000 -0.006000 0.000000 -0.729395 -0.006000 0.000000 -0.006000 -0.006000 0.000000 -0.717255 -0.006000 0.000000 -0.006000 0.000000 0.000000 -0.006000 0.000000 0.000000 -0.794794 0.006000 0.000000 -0.006000 0.006000 0.000000 -0.006000 0.006000 0.000000 -0.450043 0.006000 0.000000 -0.216068 0.006000 0.000000 -0.006000 0.006000 0.000000 -1.020072 0.006000 0.000000 -0.523370 0.006000 0.000000 -1.032550 0.009000 0.000000 -0.030000 -0.009000 0.000000 -0.078000 -0.006000 0.000000 -0.006000 -0.006000 0.000000 -0.125984 -0.006000 0.000000 -0.404860 -0.006000 0.000000 -0.006000 -0.006000 0.000000 -0.791650 -0.006000 0.000000 -0.006000 -0.006000 0.000000 -0.861081 -0.006000 0.000000 -0.006000 0.000000 0.000000 -0.006000 0.000000 0.000000 -0.644482 0.006000 0.000000 -0.006000 0.006000 0.000000 -0.006000 0.006000 0.000000 -0.443922 0.006000 0.000000 -0.158923 0.006000 0.000000 -0.006000 0.006000 0.000000 -1.013935 0.006000 0.000000 -0.514967 0.006000 0.000000 -1.043894 0.009000 0.000000 -0.030000 -0.009000 0.000000 -0.072000 -0.006000 0.000000 -0.006000 -0.006000 0.000000 -0.107993 -0.006000 0.000000 -0.504452 -0.006000 0.000000 -0.006000 -0.006000 0.000000 -0.746930 -0.006000 0.000000 -0.006000 -0.006000 0.000000 -0.722933 -0.006000 0.000000 -0.006000 0.000000 0.000000 -0.006000 0.000000 0.000000 -0.843061 0.006000 0.000000 -0.006000 0.006000 0.000000 -0.006000 0.006000 0.000000 -0.438007 0.006000 0.000000 -0.180028 0.006000 0.000000 -0.006000 0.006000 0.000000 -1.020110 0.006000 0.000000 -0.558556 0.006000 0.000000 -1.032335 0.009000 0.000000 -0.030000 -0.009000 0.000000 -0.072001 -0.006000 0.000000 -0.006000 -0.006000 0.000000 -0.102007 -0.006000 0.000000 -0.515785 -0.006000 0.000000 -0.006000 -0.006000 0.000000 -0.693177 -0.006000 0.000000 -0.006000 -0.006000 0.000000 -0.759175 -0.006000 0.000000 -0.006000 0.000000 0.000000 -0.006000 0.000000 0.000000 -0.718514 0.006000 0.000000 -0.006000 0.006000 0.000000 -0.006000 0.006000 0.000000 -0.426170 0.006000 0.000000 -0.173999 0.006000 0.000000 -0.006000 0.006000 0.000000 -1.002177 0.006000 0.000000 -0.445934 0.006000 0.000000 -1.007803 0.009000 0.000000 -0.024000 -0.009000 0.000000 -0.071999 -0.006000 0.000000 -0.006000 -0.006000 0.000000 -0.095990 -0.006000 0.000000 -0.474337 -0.006000 0.000000 -0.006000 -0.006000 0.000000 -0.753125 -0.006000 0.000000 -0.006000 -0.006000 0.000000 -0.831367 -0.006000 0.000000 -0.006000 0.000000 0.000000 -0.006000 0.000000 0.000000 -0.647539 0.006000 0.000000 -0.006000 0.006000 0.000000 -0.006000 0.006000 0.000000 -0.425951 0.006000 0.000000 -0.203979 0.006000 0.000000 -0.006000 0.006000 0.000000 -0.990154 0.006000 0.000000 -0.450861 0.006000 0.000000 -1.044062 0.009000 0.000000 -0.024000 -0.009000 0.000000 -0.072001 -0.006000 0.000000 -0.006000 -0.006000 0.000000 -0.102002 -0.006000 0.000000 -0.603075 -0.006000 0.000000 -0.006000 -0.006000 0.000000 -0.840164 -0.006000 0.000000 -0.006000 -0.006000 0.000000 -0.903361 -0.006000 0.000000 -0.006000 0.000000 0.000000 -0.006000 0.000000 0.000000 -0.830845 0.006000 0.000000 -0.006000 0.006000 0.000000 -0.006000 0.006000 0.000000 -0.510019 0.006000 0.000000 -0.198231 0.006000 0.000000 -0.006000 0.006000 0.000000 -0.960053 0.006000 0.000000 -0.399999 0.006000 0.000000 -1.032406 0.009000 0.000000 -0.024000 -0.009000 0.000000 -0.072000 -0.006000 0.000000 -0.006000 -0.006000 0.000000 -0.102012 -0.006000 0.000000 -0.306005 -0.006000 0.000000 -0.006000 -0.006000 0.000000 -0.599976 -0.006000 0.000000 -0.006000 -0.006000 0.000000 -0.792403 -0.006000 0.000000 -0.006000 0.000000 0.000000 -0.006000 0.000000 0.000000 -0.846934 0.006000 0.000000 -0.006000 0.006000 0.000000 -0.006000 0.006000 0.000000 -0.408042 0.006000 0.000000 -0.170764 0.006000 0.000000 -0.006000 0.006000 0.000000 -0.971440 0.006000 0.000000 -0.357277 0.006000 0.000000 -1.000668 0.009000 0.000000 -0.024000 -0.009000 0.000000 -0.072002 -0.006000 0.000000 -0.006000 -0.006000 0.000000 -0.060003 -0.006000 0.000000 -0.344941 -0.006000 0.000000 -0.006000 -0.006000 0.000000 -0.756512 -0.006000 0.000000 -0.006000 -0.006000 0.000000 -0.849741 -0.006000 0.000000 -0.006000 0.000000 0.000000 -0.006000 0.000000 0.000000 -0.806066 0.006000 0.000000 -0.006000 0.006000 0.000000 -0.006000 0.006000 0.000000 -0.408049 0.006000 0.000000 -0.135000 0.006000 0.000000 -0.006000 0.006000 0.000000 -0.977997 0.006000 0.000000 -0.396004 0.006000 0.000000 -0.971981 0.009000 0.000000 -0.024000 -0.009000 0.000000 -0.036002 -0.006000 0.000000 -0.006000 -0.006000 0.000000 -0.060008 -0.006000 0.000000 -0.444242 -0.006000 0.000000 -0.006000 -0.006000 0.000000 -0.735489 -0.006000 0.000000 -0.006000 -0.006000 0.000000 -0.838930 -0.006000 0.000000 -0.006000 0.000000 0.000000 -0.006000 0.000000 0.000000 -0.879263 0.006000 0.000000 -0.006000 0.006000 0.000000 -0.000000 0.006000 0.000000 -0.401973 0.006000 0.000000 -0.206720 0.006000 0.000000 -0.000000 0.006000 0.000000 -0.967271 0.006000 0.000000 -0.379437 0.006000 0.000000 -0.926655 0.009000 0.000000 -0.024000 -0.009000 0.000000 -0.065996 -0.006000 0.000000 -0.006000 -0.006000 0.000000 -0.077998 -0.006000 0.000000 -0.446766 -0.006000 0.000000 -0.006000 -0.006000 0.000000 -0.801160 -0.006000 0.000000 -0.006000 -0.006000 0.000000 -0.813567 -0.006002 0.000000 -0.006000 0.000000 0.000000 -0.006000 0.000000 0.000000 -1.112443 0.006002 0.000000 -0.000000 0.006000 0.000000 -0.000000 0.006000 0.000000 -0.390110 0.006000 0.000000 -0.180689 0.006000 0.000000 0.000000 0.006000 0.000000 -0.948149 0.006001 0.000000 -0.338736 0.006000 0.000000 -0.942884 0.009002 0.000000 -0.018000 -0.009000 0.000000 -0.048004 -0.006000 0.000000 -0.006000 -0.006000 0.000000 0.029969 -0.006000 0.000000 -0.437709 -0.005994 0.000000 -0.006000 -0.006000 0.000000 -0.695379 -0.006012 0.000000 -0.006000 -0.006000 0.000000 -0.738850 -0.005964 0.000000 -0.006000 0.000000 0.000000 -0.006000 0.000000 0.000000 -1.028040 0.005927 0.000000 -0.000000 0.006000 0.000000 -0.000000 0.006000 0.000000 -0.384025 0.006000 0.000000 -0.192964 0.006000 0.000000 0.000000 0.006000 0.000000 -0.864300 0.005976 0.000000 -0.283629 0.005998 0.000000 -0.912145 0.008960 0.000000 -0.018000 -0.009000 0.000000 -0.048002 -0.006000 0.000000 -0.000000 -0.005998 0.000000 0.047858 -0.006000 0.000000 -0.372680 -0.006002 0.000000 -0.006000 -0.006000 0.000000 -0.721860 -0.005604 0.000000 -0.006000 -0.006000 0.000000 -0.738813 -0.006454 0.000000 -0.006000 0.000000 0.000000 -0.006000 0.000000 0.000000 -0.238004 0.006954 0.000000 -0.000000 0.006000 0.000000 -0.000000 0.006000 0.000000 -0.378208 0.006000 0.000000 -0.216438 0.006003 0.000000 0.000000 0.006000 0.000000 -0.841043 0.006538 0.000000 0.250733 0.006079 0.000000 -0.893492 0.009787 0.000000 -0.018000 -0.009000 0.000000 -0.030005 -0.011929 0.000000 0.000038 -0.012002 0.000000 0.065930 -0.006018 0.000000 -0.397653 -0.008644 0.000000 -0.005940 0.006000 0.000000 -0.704086 -0.011942 0.000000 -0.000000 -0.006000 0.000000 -0.830219 -0.004514 0.000000 -0.006000 -0.000000 0.000000 -0.006000 0.000000 0.000000 -0.470223 -0.002715 0.000000 -0.000000 0.006000 0.000000 -0.000000 0.006000 0.000000 -0.329986 0.005960 0.000000 -0.251606 0.005381 0.000000 -0.000000 0.006000 0.000000 -0.723489 -0.003492 0.000000 0.322117 0.003992 0.000000 -0.831508 -0.001154 0.000000 -0.012000 -0.009000 0.000000 -0.030019 -0.017045 0.000000 -0.005975 -0.011989 0.000000 0.104839 -0.005103 0.000000 -0.152874 0.014218 0.000000 -0.005868 0.000000 0.000000 -0.705066 0.032331 0.000000 -0.000000 -0.006002 0.000000 -0.883988 0.022933 0.000000 0.000000 0.000001 0.000000 -0.006000 0.000000 0.000000 -0.499255 0.057152 0.000000 -0.000000 0.006000 0.000000 -0.000000 0.006000 0.000000 -0.366588 0.008374 0.000000 -0.265212 0.026962 0.000000 0.000212 0.035999 0.000000 -0.032098 0.088917 0.000000 0.365495 0.037811 0.000000 -0.652308 0.085002 0.000000 -0.011850 -0.087063 0.000000 -0.030735 -0.097115 0.000000 0.005382 -0.078008 0.000000 0.117679 -0.073990 0.000000 -0.139950 -0.108927 0.000000 0.023171 -0.086624 0.000000 -0.904524 -0.174080 0.000000 0.010734 -0.179687 0.000000 -2.761334 -0.486134 0.000000 -0.000850 -0.306021 0.000000 0.044637 -0.280382 0.000000 -0.409495 -0.184771 0.000000 0.040884 -0.121516 0.000000 0.048778 -0.251125 0.000000 -0.322504 -0.180065 0.000000 -0.272020 -0.340825 0.000000 0.081471 -0.070515 0.000000 -1.067625 -0.200461 0.000000 1.108901 0.010561 0.000000 1.103902 0.438099 0.000000 0.043789 0.048334 0.000000 -0.006808 0.041980 0.000000 0.006097 0.065999 0.000000 0.146772 0.184208 0.000000 -0.242512 0.714011 0.000000 0.013704 0.761848 0.000000 -2.078783 1.531544 0.000000 -0.437603 1.299009 0.000000 -1.284589 0.970296 0.000000 0.364282 0.850361 0.000000 0.102231 0.802309 0.000000 -0.130021 0.810127 0.000000 0.138759 0.505396 0.000000 0.040510 0.846981 0.000000 -0.306559 0.751883 0.000000 -0.415641 1.011632 0.000000 0.087124 1.033062 0.000000 0.049460 1.502199 0.000000 0.814802 1.445233 0.000000 3.761110 1.422283 0.000000 -0.030569 -1.728073 0.000000 0.119533 -1.509060 0.000000 -0.003498 -1.296123 0.000000 0.211413 -1.407759 0.000000 -0.763808 -1.340054 0.000000 0.600437 -1.571776 0.000000 -0.002138 -1.845070 0.000000 0.356871 -1.394617 0.000000 -3.260485 -2.060959 0.000000 0.249505 -2.690386 0.000000 0.557589 -2.479458 0.000000 -1.145897 -2.637341 0.000000 -3.545530 -1.369464 0.000000 0.358475 -1.053375 0.000000 -0.733047 -0.760999 0.000000 -1.492800 -0.496463 0.000000 1.500994 -2.395969 0.000000 0.866944 -0.990898 0.000000 1.252710 2.958988 0.000000 2.513862 1.351019 0.000000 -0.010584 -9.711135 0.000000 -0.038460 -9.610739 0.000000 -0.289916 -9.628184 0.000000 0.376225 -4.656157 0.000000 0.116378 -6.199048 0.000000 -0.660515 -3.169306 0.000000 2.666322 -1.953428 0.000000 1.727148 -0.866199 0.000000 4.779846 -3.636786 0.000000 -1.053715 -1.139015 0.000000 1.919843 0.313853 0.000000 0.800672 0.028648 0.000000 0.602418 0.133923 0.000000 2.754832 2.103749 0.000000 0.088531 2.704563 0.000000 1.576197 2.974077 0.000000 3.250072 -1.340021 0.000000 0.214844 -0.272375 0.000000 -9.421414 6.699962 0.000000 5.440524 -5.076778 0.000000 -0.015617 -11.463270 0.000000 -0.188243 -11.362260 0.000000 -0.413775 -8.757805 0.000000 0.864568 -10.163362 0.000000 -0.520183 -4.758650 0.000000 -1.691617 -5.188924 0.000000 0.096636 -9.346860 0.000000 1.179769 -12.549729 0.000000 6.454032 -7.092950 0.000000 -0.606916 1.782404 0.000000 0.139252 -0.508764 0.000000 4.605799 -7.023329 0.000000 -28.527317 9.226169 0.000000 10.208945 -19.626236 0.000000 -0.184611 -47.919524 0.000000 4.989470 3.473079 0.000000 8.845563 -5.727009 0.000000 -7.566863 3.180727 0.000000 1.180138 7.150615 0.000000 1.429888 9.650752 0.000000 -0.019696 -11.205235 0.000000 -0.051414 -11.158706 0.000000 -0.408243 -8.662238 0.000000 0.789450 -9.271949 0.000000 -0.418948 -4.677035 0.000000 -1.829203 -5.157783 0.000000 0.880076 -6.948774 0.000000 2.046455 -4.638979 0.000000 3.764768 -5.769548 0.000000 0.191007 -1.604341 0.000000 -1.524003 -1.947730 0.000000 4.175783 -4.268898 0.000000 -1.746944 -6.468270 0.000000 14.443543 -37.154318 0.000000 6.465595 -0.797478 0.000000 -70.348519 4.158643 0.000000 -40.209349 26.502211 0.000000 -4.140493 -8.372840 0.000000 66.398424 -17.577907 0.000000 22.693828 -85.136803 0.000000 -0.014321 -11.235478 0.000000 0.057558 -11.080758 0.000000 -0.313672 -8.937344 0.000000 0.808736 -9.098303 0.000000 -0.532189 -4.423406 0.000000 -1.832129 -5.617341 0.000000 2.390878 -6.636942 0.000000 3.238348 -3.591772 0.000000 1.821702 -5.281803 0.000000 1.469258 -4.134987 0.000000 0.015035 -3.903735 0.000000 -1.704225 -2.095202 0.000000 3.865706 -3.373985 0.000000 31.029348 -61.635525 0.000000 -31.187718 -19.091531 0.000000 -9.501913 -7.133154 0.000000 14.565958 -36.945057 0.000000 -22.900149 -41.850900 0.000000 18.234481 14.054366 0.000000 124.356902 -13.966270 0.000000 -0.010264 -11.391358 0.000000 0.140677 -11.287046 0.000000 -0.340786 -8.273948 0.000000 0.991065 -9.600561 0.000000 -0.160797 -4.794587 0.000000 -1.869018 -3.780828 0.000000 0.342025 -8.647635 0.000000 2.844360 -4.125949 0.000000 2.044153 -6.732532 0.000000 3.230969 -4.562023 0.000000 -0.584747 -1.793779 0.000000 -0.607448 -5.959100 0.000000 4.375652 -12.632958 0.000000 9.943051 -40.299259 0.000000 -85.103284 4.748631 0.000000 -34.816048 -143.778545 0.000000 108.468770 -68.292754 0.000000 6.168475 -6.440722 0.000000 -24.814134 -14.630904 0.000000 -7