<VTKFile type="UnstructuredGrid" version="0.1" byte_order="LittleEndian">
  <UnstructuredGrid>
    <Piece NumberOfPoints="2000" NumberOfCells="0">
      <Points>
        <DataArray name="Position" type="Float32" NumberOfComponents="3" format="ascii">
-0.000826 -0.000499 0.000000 -0.000826 0.999668 0.000000 -0.000826 1.999668 0.000000 -0.000826 2.999668 0.000000 -0.000991 3.999669 0.000000 -0.001125 4.999669 0.000000 -0.001111 5.999669 0.000000 -0.001146 6.999669 0.000000 -0.000817 7.999670 0.000000 -0.001145 9.000000 0.000000 -0.000813 10.000001 0.000000 -0.000812 11.000330 0.000000 -0.000814 12.000331 0.000000 -0.000814 13.000331 0.000000 -0.000814 14.000331 0.000000 -0.000808 15.000331 0.000000 -0.000808 16.000332 0.000000 -0.000808 17.000332 0.000000 -0.000808 18.000332 0.000000 -0.000808 19.000499 0.000000 0.999665 -0.000499 0.000000 0.999665 0.999668 0.000000 0.999665 1.999668 0.000000 0.999665 2.999668 0.000000 0.999256 3.999669 0.000000 0.999047 4.999669 0.000000 0.999117 5.999669 0.000000 0.999341 6.999669 0.000000 0.999660 7.999670 0.000000 0.999342 9.000000 0.000000 0.999658 10.000001 0.000000 0.999658 11.000330 0.000000 0.999659 12.000331 0.000000 0.999659 13.000331 0.000000 0.999659 14.000331 0.000000 0.999656 15.000331 0.000000 0.999656 16.000332 0.000000 0.999656 17.000332 0.000000 0.999656 18.000332 0.000000 0.999656 19.000499 0.000000 1.999668 -0.000499 0.000000 1.999668 0.999668 0.000000 1.999668 1.999668 0.000000 1.999668 2.999668 0.000000 1.999664 3.999669 0.000000 1.999333 4.999669 0.000000 1.999326 5.999669 0.000000 1.999345 6.999669 0.000000 1.999668 7.999670 0.000000 1.999345 9.000000 0.000000 1.999668 10.000001 0.000000 1.999668 11.000330 0.000000 1.999668 12.000331 0.000000 1.999668 13.000331 0.000000 1.999668 14.000331 0.000000 1.999668 15.000331 0.000000 1.999668 16.000332 0.000000 1.999668 17.000332 0.000000 1.999668 18.000332 0.000000 1.999668 19.000499 0.000000 2.999668 -0.000499 0.000000 2.999668 0.999668 0.000000 2.999668 1.999668 0.000000 2.999668 2.999668 0.000000 2.999667 3.999669 0.000000 2.999341 4.999669 0.000000 2.999343 5.999669 0.000000 2.999349 6.999669 0.000000 2.999668 7.999670 0.000000 2.999349 9.000000 0.000000 2.999668 10.000001 0.000000 2.999668 11.000330 0.000000 2.999668 12.000331 0.000000 2.999668 13.000331 0.000000 2.999668 14.000331 0.000000 2.999668 15.000331 0.000000 2.999668 16.000332 0.000000 2.999668 17.000332 0.000000 2.999668 18.000332 0.000000 2.999668 19.000499 0.000000 3.999668 -0.000499 0.000000 3.999668 0.999668 0.000000 3.999668 1.999668 0.000000 3.999668 2.999668 0.000000 3.999667 3.999669 0.000000 3.999343 4.999669 0.000000 3.999348 5.999669 0.000000 3.999662 6.999669 0.000000 3.999668 7.999670 0.000000 3.999662 9.000000 0.000000 3.999668 10.000001 0.000000 3.999668 11.000330 0.000000 3.999668 12.000331 0.000000 3.999668 13.000331 0.000000 3.999668 14.000331 0.000000 3.999668 15.000331 0.000000 3.999668 16.000332 0.000000 3.999668 17.000332 0.000000 3.999668 18.000332 0.000000 3.999668 19.000499 0.000000 4.999669 -0.001732 0.000000 4.999669 0.998993 0.000000 4.999669 1.999014 0.000000 4.999669 2.999020 0.000000 4.999668 3.999327 0.000000 4.999344 4.999339 0.000000 4.999379 5.999348 0.000000 4.999667 6.999360 0.000000 4.999668 7.999669 0.000000 4.999667 8.999669 0.000000 4.999668 9.999669 0.000000 4.999668 11.000001 0.000000 4.999669 12.000331 0.000000 4.999669 13.000331 0.000000 4.999669 14.000331 0.000000 4.999669 15.000331 0.000000 4.999669 16.000332 0.000000 4.999669 17.000332 0.000000 4.999669 18.000332 0.000000 4.999669 19.000499 0.000000 5.999670 -0.000819 0.000000 5.999670 0.999376 0.000000 5.999670 1.999661 0.000000 5.999670 2.999668 0.000000 5.999670 3.999668 0.000000 5.999350 4.999668 0.000000 5.999384 5.999669 0.000000 5.999667 6.999961 0.000000 5.999669 7.999999 0.000000 5.999667 9.000000 0.000000 5.999669 10.000001 0.000000 5.999668 11.000330 0.000000 5.999669 12.000331 0.000000 5.999669 13.000331 0.000000 5.999669 14.000331 0.000000 5.999669 15.000331 0.000000 5.999669 16.000332 0.000000 5.999669 17.000332 0.000000 5.999669 18.000332 0.000000 5.999669 19.000499 0.000000 6.999670 -0.000499 0.000000 6.999670 0.999668 0.000000 6.999670 1.999668 0.000000 6.999670 2.999668 0.000000 6.999670 3.999669 0.000000 6.999660 4.999669 0.000000 6.999660 5.999669 0.000000 6.999668 6.999670 0.000000 6.999669 7.999670 0.000000 6.999668 8.999999 0.000000 6.999669 10.000001 0.000000 6.999669 11.000330 0.000000 6.999669 12.000331 0.000000 6.999669 13.000331 0.000000 6.999669 14.000331 0.000000 6.999669 15.000331 0.000000 6.999669 16.000332 0.000000 6.999669 17.000332 0.000000 6.999669 18.000332 0.000000 6.999669 19.000499 0.000000 7.999670 -0.000499 0.000000 7.999670 0.999668 0.000000 7.999670 1.999668 0.000000 7.999670 2.999668 0.000000 7.999671 3.999669 0.000000 7.999666 4.999669 0.000000 7.999666 5.999669 0.000000 7.999669 6.999669 0.000000 7.999670 7.999670 0.000000 7.999669 8.999999 0.000000 7.999669 10.000001 0.000000 7.999669 11.000330 0.000000 7.999669 12.000331 0.000000 7.999669 13.000331 0.000000 7.999669 14.000331 0.000000 7.999669 15.000331 0.000000 7.999669 16.000332 0.000000 7.999669 17.000332 0.000000 7.999669 18.000332 0.000000 7.999669 19.000499 0.000000 8.999670 -0.000499 0.000000 8.999670 0.999668 0.000000 8.999670 1.999668 0.000000 8.999670 2.999668 0.000000 8.999671 3.999669 0.000000 8.999667 4.999669 0.000000 8.999668 5.999669 0.000000 8.999670 6.999669 0.000000 8.999670 7.999670 0.000000 8.999670 9.000000 0.000000 8.999670 10.000001 0.000000 8.999670 11.000330 0.000000 8.999670 12.000331 0.000000 8.999670 13.000331 0.000000 8.999670 14.000331 0.000000 8.999670 15.000331 0.000000 8.999670 16.000332 0.000000 8.999670 17.000332 0.000000 8.999670 18.000332 0.000000 8.999670 19.000499 0.000000 9.999671 -0.000499 0.000000 9.999671 0.999668 0.000000 9.999671 1.999668 0.000000 9.999671 2.999668 0.000000 9.999671 3.999669 0.000000 9.999669 4.999669 0.000000 9.999669 5.999669 0.000000 9.999671 6.999669 0.000000 9.999670 7.999670 0.000000 9.999670 9.000000 0.000000 9.999670 10.000001 0.000000 9.999670 11.000330 0.000000 9.999670 12.000331 0.000000 9.999670 13.000331 0.000000 9.999670 14.000331 0.000000 9.999670 15.000331 0.000000 9.999670 16.000332 0.000000 9.999670 17.000332 0.000000 9.999670 18.000332 0.000000 9.999670 19.000499 0.000000 10.999671 -0.000499 0.000000 10.999671 0.999668 0.000000 10.999671 1.999668 0.000000 10.999671 2.999668 0.000000 10.999672 3.999669 0.000000 10.999674 4.999669 0.000000 10.999674 5.999669 0.000000 10.999672 6.999669 0.000000 10.999671 7.999670 0.000000 10.999672 9.000000 0.000000 10.999670 10.000001 0.000000 10.999670 11.000330 0.000000 10.999670 12.000331 0.000000 10.999670 13.000331 0.000000 10.999670 14.000331 0.000000 10.999670 15.000331 0.000000 10.999670 16.000332 0.000000 10.999670 17.000332 0.000000 10.999670 18.000332 0.000000 10.999670 19.000499 0.000000 11.999671 -0.000499 0.000000 11.999671 0.999668 0.000000 11.999671 1.999668 0.000000 11.999671 2.999668 0.000000 11.999672 3.999669 0.000000 11.999674 4.999669 0.000000 11.999674 5.999669 0.000000 11.999672 6.999669 0.000000 11.999671 7.999670 0.000000 11.999672 9.000000 0.000000 11.999671 10.000001 0.000000 11.999671 11.000330 0.000000 11.999671 12.000331 0.000000 11.999671 13.000331 0.000000 11.999671 14.000331 0.000000 11.999671 15.000331 0.000000 11.999671 16.000332 0.000000 11.999671 17.000332 0.000000 11.999671 18.000332 0.000000 11.999671 19.000499 0.000000 12.999672 -0.000499 0.000000 12.999672 0.999668 0.000000 12.999672 1.999668 0.000000 12.999672 2.999668 0.000000 12.999672 3.999669 0.000000 12.999674 4.999669 0.000000 12.999674 5.999669 0.000000 12.999673 6.999669 0.000000 12.999672 7.999670 0.000000 12.999673 9.000000 0.000000 12.999671 10.000001 0.000000 12.999671 11.000330 0.000000 12.999671 12.000331 0.000000 12.999671 13.000331 0.000000 12.999671 14.000331 0.000000 12.999671 15.000331 0.000000 12.999671 16.000332 0.000000 12.999671 17.000332 0.000000 12.999671 18.000332 0.000000 12.999671 19.000499 0.000000 13.999672 -0.000499 0.000000 13.999672 0.999668 0.000000 13.999672 1.999668 0.000000 13.999672 2.999668 0.000000 13.999672 3.999669 0.000000 13.999674 4.999669 0.000000 13.999674 5.999669 0.000000 13.999673 6.999669 0.000000 13.999672 7.999670 0.000000 13.999673 9.000000 0.000000 13.999671 10.000001 0.000000 13.999671 11.000330 0.000000 13.999671 12.000331 0.000000 13.999671 13.000331 0.000000 13.999671 14.000331 0.000000 13.999671 15.000331 0.000000 13.999671 16.000332 0.000000 13.999671 17.000332 0.000000 13.999671 18.000332 0.000000 13.999671 19.000499 0.000000 14.999672 -0.000499 0.000000 14.999672 0.999668 0.000000 14.999672 1.999668 0.000000 14.999672 2.999668 0.000000 14.999673 3.999669 0.000000 14.999675 4.999669 0.000000 14.999675 5.999669 0.000000 14.999673 6.999669 0.000000 14.999672 7.999670 0.000000 14.999673 9.000000 0.000000 14.999672 10.000001 0.000000 14.999672 11.000330 0.000000 14.999672 12.000331 0.000000 14.999672 13.000331 0.000000 14.999672 14.000331 0.000000 14.999672 15.000331 0.000000 14.999672 16.000332 0.000000 14.999672 17.000332 0.000000 14.999672 18.000332 0.000000 14.999672 19.000499 0.000000 15.999672 -0.000499 0.000000 15.999672 0.999668 0.000000 15.999672 1.999668 0.000000 15.999672 2.999668 0.000000 15.999673 3.999669 0.000000 15.999675 4.999669 0.000000 15.999675 5.999669 0.000000 15.999674 6.999669 0.000000 15.999672 7.999670 0.000000 15.999674 9.000000 0.000000 15.999673 10.000001 0.000000 15.999673 11.000330 0.000000 15.999673 12.000331 0.000000 15.999673 13.000331 0.000000 15.999673 14.000331 0.000000 15.999672 15.000331 0.000000 15.999672 16.000332 0.000000 15.999672 17.000332 0.000000 15.999672 18.000332 0.000000 15.999672 19.000499 0.000000 16.999673 -0.000499 0.000000 16.999673 0.999668 0.000000 16.999673 1.999668 0.000000 16.999673 2.999668 0.000000 16.999673 3.999669 0.000000 16.999675 4.999669 0.000000 16.999675 5.999669 0.000000 16.999674 6.999669 0.000000 16.999673 7.999670
[...]
      <PointData Vectors="vector">
        <DataArray type="Float32" Name="Velocity" NumberOfComponents="3" format="ascii">
-0.015000 -0.009000 0.000000 -0.015000 -0.006000 0.000000 -0.015000 -0.006000 0.000000 -0.015000 -0.006000 0.000000 -0.021000 -0.006000 0.000000 -0.021000 -0.006000 0.000000 -0.021000 -0.006000 0.000000 -0.021000 -0.006000 0.000000 -0.015000 -0.006000 0.000000 -0.021000 0.000000 0.000000 -0.015000 0.000000 0.000000 -0.015000 0.006000 0.000000 -0.015000 0.006000 0.000000 -0.015000 0.006000 0.000000 -0.015000 0.006000 0.000000 -0.015000 0.006000 0.000000 -0.015000 0.006000 0.000000 -0.015000 0.006000 0.000000 -0.015000 0.006000 0.000000 -0.015000 0.009000 0.000000 -0.006000 -0.009000 0.000000 -0.006000 -0.006000 0.000000 -0.006000 -0.006000 0.000000 -0.006000 -0.006000 0.000000 -0.012000 -0.006000 0.000000 -0.018000 -0.006000 0.000000 -0.018000 -0.006000 0.000000 -0.012000 -0.006000 0.000000 -0.006000 -0.006000 0.000000 -0.012000 0.000000 0.000000 -0.006000 0.000000 0.000000 -0.006000 0.006000 0.000000 -0.006000 0.006000 0.000000 -0.006000 0.006000 0.000000 -0.006000 0.006000 0.000000 -0.006000 0.006000 0.000000 -0.006000 0.006000 0.000000 -0.006000 0.006000 0.000000 -0.006000 0.006000 0.000000 -0.006000 0.009000 0.000000 -0.006000 -0.009000 0.000000 -0.006000 -0.006000 0.000000 -0.006000 -0.006000 0.000000 -0.006000 -0.006000 0.000000 -0.006000 -0.006000 0.000000 -0.012000 -0.006000 0.000000 -0.012000 -0.006000 0.000000 -0.012000 -0.006000 0.000000 -0.006000 -0.006000 0.000000 -0.012000 0.000000 0.000000 -0.006000 0.000000 0.000000 -0.006000 0.006000 0.000000 -0.006000 0.006000 0.000000 -0.006000 0.006000 0.000000 -0.006000 0.006000 0.000000 -0.006000 0.006000 0.000000 -0.006000 0.006000 0.000000 -0.006000 0.006000 0.000000 -0.006000 0.006000 0.000000 -0.006000 0.009000 0.000000 -0.006000 -0.009000 0.000000 -0.006000 -0.006000 0.000000 -0.006000 -0.006000 0.000000 -0.006000 -0.006000 0.000000 -0.006000 -0.006000 0.000000 -0.012000 -0.006000 0.000000 -0.012000 -0.006000 0.000000 -0.012000 -0.006000 0.000000 -0.006000 -0.006000 0.000000 -0.012000 -0.000000 0.000000 -0.006000 -0.000000 0.000000 -0.006000 0.006000 0.000000 -0.006000 0.006000 0.000000 -0.006000 0.006000 0.000000 -0.006000 0.006000 0.000000 -0.006000 0.006000 0.000000 -0.006000 0.006000 0.000000 -0.006000 0.006000 0.000000 -0.006000 0.006000 0.000000 -0.006000 0.009000 0.000000 -0.006000 -0.009000 0.000000 -0.006000 -0.006000 0.000000 -0.006000 -0.006000 0.000000 -0.006000 -0.006000 0.000000 -0.006000 -0.005999 0.000000 -0.012000 -0.006000 0.000000 -0.012000 -0.005999 0.000000 -0.006000 -0.006000 0.000000 -0.006000 -0.006000 0.000000 -0.006000 0.000000 0.000000 -0.006000 0.000000 0.000000 -0.006000 0.006000 0.000000 -0.006000 0.006000 0.000000 -0.006000 0.006000 0.000000 -0.006000 0.006000 0.000000 -0.006000 0.006000 0.000000 -0.006000 0.006000 0.000000 -0.006000 0.006000 0.000000 -0.006000 0.006000 0.000000 -0.006000 0.009000 0.000000 -0.006000 -0.033000 0.000000 -0.006000 -0.018000 0.000000 -0.006000 -0.018000 0.000000 -0.006000 -0.018000 0.000000 -0.006000 -0.012001 0.000000 -0.012001 -0.012001 0.000000 -0.012000 -0.012001 0.000000 -0.006000 -0.012000 0.000000 -0.006000 -0.006000 0.000000 -0.006000 -0.006000 0.000000 -0.006000 -0.006000 0.000000 -0.006000 -0.000000 0.000000 -0.006000 0.006000 0.000000 -0.006000 0.006000 0.000000 -0.006000 0.006000 0.000000 -0.006000 0.006000 0.000000 -0.006000 0.006000 0.000000 -0.006000 0.006000 0.000000 -0.006000 0.006000 0.000000 -0.006000 0.009000 0.000000 -0.006000 -0.015000 0.000000 -0.006000 -0.012000 0.000000 -0.006000 -0.006000 0.000000 -0.006000 -0.006000 0.000000 -0.006000 -0.005999 0.000000 -0.012000 -0.006000 0.000000 -0.012000 -0.005999 0.000000 -0.006000 -0.000000 0.000000 -0.006000 0.000000 0.000000 -0.006000 0.000000 0.000000 -0.006000 0.000000 0.000000 -0.006000 0.006000 0.000000 -0.006000 0.006000 0.000000 -0.006000 0.006000 0.000000 -0.006000 0.006000 0.000000 -0.006000 0.006000 0.000000 -0.006000 0.006000 0.000000 -0.006000 0.006000 0.000000 -0.006000 0.006000 0.000000 -0.006000 0.009000 0.000000 -0.006000 -0.009000 0.000000 -0.006000 -0.006000 0.000000 -0.006000 -0.006000 0.000000 -0.006000 -0.006000 0.000000 -0.006000 -0.006000 0.000000 -0.006000 -0.006000 0.000000 -0.006000 -0.006000 0.000000 -0.006000 -0.006000 0.000000 -0.006000 -0.006000 0.000000 -0.006000 -0.000000 0.000000 -0.006000 0.000000 0.000000 -0.006000 0.006000 0.000000 -0.006000 0.006000 0.000000 -0.006000 0.006000 0.000000 -0.006000 0.006000 0.000000 -0.006000 0.006000 0.000000 -0.006000 0.006000 0.000000 -0.006000 0.006000 0.000000 -0.006000 0.006000 0.000000 -0.006000 0.009000 0.000000 -0.006000 -0.009000 0.000000 -0.006000 -0.006000 0.000000 -0.006000 -0.006000 0.000000 -0.006000 -0.006000 0.000000 -0.006000 -0.006000 0.000000 -0.006000 -0.006000 0.000000 -0.006000 -0.006000 0.000000 -0.006000 -0.006000 0.000000 -0.006000 -0.006000 0.000000 -0.006000 0.000000 0.000000 -0.006000 0.000000 0.000000 -0.006000 0.006000 0.000000 -0.006000 0.006000 0.000000 -0.006000 0.006000 0.000000 -0.006000 0.006000 0.000000 -0.006000 0.006000 0.000000 -0.006000 0.006000 0.000000 -0.006000 0.006000 0.000000 -0.006000 0.006000 0.000000 -0.006000 0.009000 0.000000 -0.006000 -0.009000 0.000000 -0.006000 -0.006000 0.000000 -0.006000 -0.006000 0.000000 -0.006000 -0.006000 0.000000 -0.006000 -0.006000 0.000000 -0.006000 -0.006000 0.000000 -0.006000 -0.006000 0.000000 -0.006000 -0.006000 0.000000 -0.006000 -0.006000 0.000000 -0.006000 0.000000 0.000000 -0.006000 0.000000 0.000000 -0.006000 0.006000 0.000000 -0.006000 0.006000 0.000000 -0.006000 0.006000 0.000000 -0.006000 0.006000 0.000000 -0.006000 0.006000 0.000000 -0.006000 0.006000 0.000000 -0.006000 0.006000 0.000000 -0.006000 0.006000 0.000000 -0.006000 0.009000 0.000000 -0.006000 -0.009000 0.000000 -0.006000 -0.006000 0.000000 -0.006000 -0.006000 0.000000 -0.006000 -0.006000 0.000000 -0.006000 -0.006000 0.000000 -0.006000 -0.006000 0.000000 -0.006000 -0.006000 0.000000 -0.006000 -0.006000 0.000000 -0.006000 -0.006000 0.000000 -0.006000 -0.000000 0.000000 -0.006000 0.000000 0.000000 -0.006000 0.006000 0.000000 -0.006000 0.006000 0.000000 -0.006000 0.006000 0.000000 -0.006000 0.006000 0.000000 -0.006000 0.006000 0.000000 -0.006000 0.006000 0.000000 -0.006000 0.006000 0.000000 -0.006000 0.006000 0.000000 -0.006000 0.009000 0.000000 -0.006000 -0.009000 0.000000 -0.006000 -0.006000 0.000000 -0.006000 -0.006000 0.000000 -0.006000 -0.006000 0.000000 -0.006000 -0.006000 0.000000 -0.006000 -0.006000 0.000000 -0.006000 -0.006000 0.000000 -0.006000 -0.006000 0.000000 -0.006000 -0.006000 0.000000 -0.006000 0.000000 0.000000 -0.006000 0.000000 0.000000 -0.006000 0.006000 0.000000 -0.006000 0.006000 0.000000 -0.006000 0.006000 0.000000 -0.006000 0.006000 0.000000 -0.006000 0.006000 0.000000 -0.006000 0.006000 0.000000 -0.006000 0.006000 0.000000 -0.006000 0.006000 0.000000 -0.006000 0.009000 0.000000 -0.006000 -0.009000 0.000000 -0.006000 -0.006000 0.000000 -0.006000 -0.006000 0.000000 -0.006000 -0.006000 0.000000 -0.006000 -0.006000 0.000000 -0.006000 -0.006000 0.000000 -0.006000 -0.006000 0.000000 -0.006000 -0.006000 0.000000 -0.006000 -0.006000 0.000000 -0.006000 0.000000 0.000000 -0.006000 0.000000 0.000000 -0.006000 0.006000 0.000000 -0.006000 0.006000 0.000000 -0.006000 0.006000 0.000000 -0.006000 0.006000 0.000000 -0.006000 0.006000 0.000000 -0.006000 0.006000 0.000000 -0.006000 0.006000 0.000000 -0.006000 0.006000 0.000000 -0.006000 0.009000 0.000000 -0.006000 -0.009000 0.000000 -0.006000 -0.006000 0.000000 -0.006000 -0.006000 0.000000 -0.006000 -0.006000 0.000000 -0.006000 -0.006000 0.000000 -0.006000 -0.006000 0.000000 -0.006000 -0.006000 0.000000 -0.006000 -0.006000 0.000000 -0.006000 -0.006000 0.000000 -0.006000 0.000000 0.000000 -0.006000 0.000000 0.000000 -0.006000 0.006000 0.000000 -0.006000 0.006000 0.000000 -0.006000 0.006000 0.000000 -0.006000 0.006000 0.000000 -0.006000 0.006000 0.000000 -0.006000 0.006000 0.000000 -0.006000 0.006000 0.000000 -0.006000 0.006000 0.000000 -0.006000 0.009000 0.000000 -0.006000 -0.009000 0.000000 -0.006000 -0.006000 0.000000 -0.006000 -0.006000 0.000000 -0.006000 -0.006000 0.000000 -0.006000 -0.006000 0.000000 -0.006000 -0.006000 0.000000 -0.006000 -0.006000 0.000000 -0.006000 -0.006000 0.000000 -0.006000 -0.006000 0.000000 -0.006000 0.000000 0.000000 -0.006000 0.000000 0.000000 -0.006000 0.006000 0.000000 -0.006000 0.006000 0.000000 -0.006000 0.006000 0.000000 -0.006000 0.006000 0.000000 -0.006000 0.006000 0.000000 -0.006000 0.006000 0.000000 -0.006000 0.006000 0.000000 -0.006000 0.006000 0.000000 -0.006000 0.009000 0.000000 -0.006000 -0.009000 0.000000 -0.006000 -0.006000 0.000000 -0.006000 -0.006000 0.000000 -0.006000 -0.006000 0.000000 -0.006000 -0.006000 0.000000 -0.006000 -0.006000 0.000000 -0.006000 -0.006000 0.000000 -0.006000 -0.006000 0.000000 -0.006000 -0.006000 0.000000 -0.006000 0.000000 0.000000 -0.006000 0.000000 0.000000 -0.006000 0.006000 0.000000 -0.006000 0.006000 0.000000 -0.006000 0.006000 0.000000 -0.006000 0.006000 0.000000 -0.006000 0.006000 0.000000 -0.006000 0.006000 0.000000 -0.006000 0.006000 0.000000 -0.006000 0.006000 0.000000 -0.006000 0.009000 0.000000 -0.006000 -0.009000 0.000000 -0.006000 -0.006000 0.000000 -0.006000 -0.006000 0.000000 -0.006000 -0.006000 0.000000 -0.006000 -0.006000 0.000000 -0.006000 -0.006000 0.000000 -0.006000 -0.006000 0.000000 -0.006000 -0.006000 0.000000 -0.006000 -0.006000 0.000000 -0.006000 0.000000 0.000000 -0.006000 0.000000 0.000000 -0.006000 0.006000 0.000000 -0.006000 0.006000 0.000000 -0.006000 0.006000 0.000000 -0.006000 0.006000 0.000000 -0.006000 0.006000 0.000000 -0.006000 0.006000 0.000000 -0.006000 0.006000 0.000000 -0.006000 0.006000 0.000000 -0.006000 0.009000 0.000000 -0.006000 -0.009000 0.000000 -0.006000 -0.006000 0.000000 -0.006000 -0.006000 0.000000 -0.006000 -0.006000 0.000000 -0.006000 -0.006000 0.000000 -0.006000 -0.006000 0.000000 -0.006000 -0.006000 0.000000 -0.006000 -0.006000 0.000000 -0.006000 -0.006000 0.000000 -0.006000 0.000000 0.000000 -0.006000 0.000000 0.000000 -0.006000 0.006000 0.000000 -0.006000 0.006000 0.000000 -0.006000 0.006000 0.000000 -0.006000 0.006000 0.000000 -0.006000 0.006000 0.000000 -0.006000 0.006000 0.000000 -0.006000 0.006000 0.000000 -0.006000 0.006000 0.000000 -0.006000 0.009000 0.000000 -0.006000 -0.009000 0.000000 -0.006000 -0.006000 0.000000 -0.006000 -0.006000 0.000000 -0.006000 -0.006000 0.000000 -0.006000 -0.006000 0.000000 -0.006000 -0.006000 0.000000 -0.006000 -0.006000 0.000000 -0.006000 -0.006000 0.000000 -0.006000 -0.006000 0.000000 -0.006000 0.000000 0.000000 -0.006000 0.000000 0.000000 -0.006000 0.006000 0.000000 -0.006000 0.006000 0.000000 -0.006000 0.006000 0.000000 -0.006000 0.006000 0.000000 -0.006000 0.006000 0.000000 -0.006000 0.006000 0.000000 -0.006000 0.006000 0.000000 -0.006000 0.006000 0.000000 -0.006000 0.009000 0.000000 -0.006000 -0.009000 0.000000 -0.006000 -0.006000 0.000000 -0.006000 -0.006000 0.000000 -0.006000 -0.006000 0.000000 -0.006000 -0.006000 0.000000 -0.006000 -0.006000 0.000000 -0.006000 -0.006000 0.000000 -0.006000 -0.006000 0.000000 -0.006000 -0.006000 0.000000 -0.006000 0.000000 0.000000 -0.006000 0.000000 0.000000 -0.006000 0.006000 0.000000 -0.006000 0.006000 0.000000 -0.006000 0.006000 0.000000 -0.006000 0.006000 0.000000 -0.006000 0.006000 0.000000 -0.006000 0.006000 0.000000 -0.006000 0.006000 0.000000 -0.006000 0.006000 0.000000 -0.006000 0.009000 0.000000 -0.006000 -0.009000 0.000000 -0.006000 -0.006000 0.000000 -0.006000 -0.006000 0.000000 -0.006000 -0.006000 0.000000 -0.006000 -0.006000 0.000000 -0.006000 -0.006000 0.000000 -0.006000 -0.006000 0.000000 -0.006000 -0.006000 0.000000 -0.006000 -0.006000 0.000000 -0.006000 0.000000 0.000000 -0.006000 0.000000 0.000000 -0.006000 0.006000 0.000000 -0.006000 0.006000 0.000000 -0.006000 0.006000 0.000000 -0.006000 0.006000 0.000000 -0.006000 0.006000 0.000000 -0.006000 0.006000 0.000000 -0.006000 0.006000 0.000000 -0.006000 0.006000 0.000000 -0.006000 0.009000 0.000000 -0.006000 -0.009000 0.000000 -0.006000 -0.006000 0.000000 -0.006000 -0.006000 0.000000 -0.006000 -0.006000 0.000000 -0.006000 -0.006000 0.000000 -0.006000 -0.006000 0.000000 -0.006000 -0.006000 0.000000 -0.006000 -0.006000 0.000000 -0.006000 -0.006000 0.000000 -0.006000 0.000000 0.000000 -0.006000 0.000000 0.000000 -0.006000 0.006000 0.000000 -0.006000 0.006000 0.000000 -0.006000 0.006000 0.000000 -0.006000 0.006000 0.000000 -0.006000 0.006000 0.000000 -0.006000 0.006000 0.000000 -0.006000 0.006000 0.000000 -0.006000 0.006000 0.000000 -0.006000 0.009000 0.000000 -0.006000 -0.009000 0.000000 -0.006000 -0.006000 0.000000 -0.006000 -0.006000 0.000000 -0.006000 -0.006000 0.000000 -0.006000 -0.006000 0.000000 -0.006000 -0.006000 0.000000 -0.006000 -0.006000 0.000000 -0.006000 -0.006000 0.000000 -0.006000 -0.006000 0.000000 -0.006000 0.000000 0.000000 -0.006000 0.000000 0.000000 -0.006000 0.006000 0.000000 -0.006000 0.006000 0.000000 -0.006000 0.006000 0.000000 -0.006000 0.006000 0.000000 -0.006000 0.006000 0.000000 -0.006000 0.006000 0.000000 -0.006000 0.006000 0.000000 -0.006000 0.006000 0.000000 -0.006000 0.009000 0.000000 -0.006000 -0.009000 0.000000 -0.006000 -0.006000 0.000000 -0.006000 -0.006000 0.000000 -0.006000 -0.006000 0.000000 -0.006000 -0.006000 0.000000 -0.006000 -0.006000 0.000000 -0.006000 -0.006000 0.000000 -0.006000 -0.006000 0.000000 -0.006000 -0.006000 0.000000 -0.006000 0.000000 0.000000 -0.006000 0.000000 0.000000 -0.006000 0.006000 0.000000 -0.006000 0.006000 0.000000 -0.006000 0.006000 0.000000 -0.006000 0.006000 0.000000 -0.006000 0.006000 0.000000 -0.006000 0.006000 0.000000 -0.006000 0.006000 0.000000 -0.006000 0.006000 0.000000 -0.006000 0.009000 0.000000 -0.006000 -0.009000 0.000000 -0.006000 -0.006000 0.000000 -0.006000 -0.006000 0.000000 -0.006000 -0.006000 0.000000 -0.006000 -0.006000 0.000000 -0.006000 -0.006000 0.000000 -0.006000 -0.006000 0.000000 -0.006000 -0.006000 0.000000 -0.006000 -0.006000 0.000000 -0.006000 0.000000 0.000000 -0.006000 0.000000 0.000000 -0.006000 0.006000 0.000000 -0.006000 0.006000 0.000000 -0.006000 0.006000 0.000000 -0.006000 0.006000 0.000000 -0.006000 0.006000 0.000000 -0.006000 0.006000 0.000000 -0.006000 0.006000 0.000000 -0.006000 0.006000 0.000000 -0.006000 0.009000 0.000000 -0.006000 -0.009000 0.000000 -0.006000 -0.006000 0.000000 -0.006000 -0.006000 0.000000 -0.006000 -0.006000 0.000000 -0.006000 -0.006000 0.000000 -0.006000 -0.006000 0.000000 -0.006000 -0.006000 0.000000 -0.006000 -0.006000 0.000000 -0.006000 -0.006000 0.000000 -0.006000 0.000000 0.000000 -0.006000 0.000000 0.000000 -0.006000 0.006000 0.000000 -0.006000 0.006000 0.000000 -0.006000 0.006000 0.000000 -0.006000 0.006000 0.000000 -0.006000 0.006000 0.000000 -0.006000 0.006000 0.000000 -0.006000 0.006000 0.000000 -0.006000 0.006000 0.000000 -0.006000 0.009000 0.000000 -0.006000 -0.009000 0.000000 -0.006000 -0.006000 0.000000 -0.006000 -0.006000 0.000000 -0.006000 -0.006000 0.000000 -0.006000 -0.006000 0.000000 -0.006000 -0.006000 0.000000 -0.006000 -0.006000 0.000000 -0.006000 -0.006000 0.000000 -0.006000 -0.006000 0.000000 -0.006000 0.000000 0.000000 -0.006000 0.000000 0.000000 -0.006000 0.006000 0.000000 -0.006000 0.006000 0.000000 -0.006000 0.006000 0.000000 -0.006000 0.006000 0.000000 -0.006000 0.006000 0.000000 -0.006000 0.006000 0.000000 -0.006000 0.006000 0.000000 -0.006000 0.006000 0.000000 -0.006000 0.009000 0.000000 -0.006000 -0.009000 0.000000 -0.006000 -0.006000 0.000000 -0.006000 -0.006000 0.000000 -0.006000 -0.006000 0.000000 -0.006000 -0.006000 0.000000 -0.006000 -0.006000 0.000000 -0.006000 -0.006000 0.000000 -0.006000 -0.006000 0.000000 -0.006000 -0.006000 0.000000 -0.006000 0.000000 0.000000 -0.006000 0.000000 0.000000 -0.006000 0.006000 0.000000 -0.006000 0.006000 0.000000 -0.006000 0.006000 0.000000 -0.006000 0.006000 0.000000 -0.006000 0.006000 0.000000 -0.006000 0.006000 0.000000 -0.006000 0.006000 0.000000 -0.006000 0.006000 0.000000 -0.006000 0.009000 0.000000 -0.006000 -0.009000 0.000000 -0.006000 -0.006000 0.000000 -0.006000 -0.006000 0.000000 -0.006000 -0.006000 0.000000 -0.006000 -0.006000 0.000000 -0.006000 -0.006000 0.000000 -0.006000 -0.006000 0.000000 -0.006000 -0.006000 0.000000 -0.006000 -0.006000 0.000000 -0.006000 0.000000 0.000000 -0.006000 0.000000 0.000000 -0.006000 0.006000 0.000000 -0.006000 0.006000 0.000000 -0.006000 0.006000 0.000000 -0.006000 0.006000 0.000000 -0.006000 0.006000 0.000000 -0.006000 0.006000 0.000000 -0.006000 0.006000 0.000000 -0.006000 0.006000 0.000000 -0.006000 0.009000 0.000000 -0.006000 -0.009000 0.000000 -0.006000 -0.006000 0.000000 -0.006000 -0.006000 0.000000 -0.006000 -0.006000 0.000000 -0.006000 -0.006000 0.000000 -0.006000 -0.006000 0.000000 -0.006000 -0.006000 0.000000 -0.006000 -0.006000 0.000000 -0.006000 -0.006000 0.000000 -0.006000 0.000000 0.000000 -0.006000 0.000000 0.000000 -0.006000 0.006000 0.000000 -0.006000 0.006000 0.000000 -0.006000 0.006000 0.000000 -0.006000 0.006000 0.000000 -0.006000 0.006000 0.000000 -0.006000 0.006000 0.000000 -0.006000 0.006000 0.000000 -0.006000 0.006000 0.000000 -0.006000 0.009000 0.000000 -0.006000 -0.009000 0.000000 -0.006000 -0.006000 0.000000 -0.006000 -0.006000 0.000000 -0.006000 -0.006000 0.000000 -0.006000 -0.006000 0.000000 -0.006000 -0.006000 0.000000 -0.006000 -0.006000 0.000000 -0.006000 -0.006000 0.000000 -0.006000 -0.006000 0.000000 -0.006000 0.000000 0.000000 -0.006000 0.000000 0.000000 -0.006000 0.006000 0.000000 -0.006000 0.006000 0.000000 -0.006000 0.006000 0.000000 -0.006000 0.006000 0.000000 -0.006000 0.006000 0.000000 -0.006000 0.006000 0.000000 -0.006000 0.006000 0.000000 -0.006000 0.006000 0.000000 -0.006000 0.009000 0.000000 -0.006000 -0.009000 0.000000 -0.006000 -0.006000 0.000000 -0.006000 -0.006000 0.000000 -0.006000 -0.006000 0.000000 -0.006000 -0.006000 0.000000 -0.006000 -0.006000 0.000000 -0.006000 -0.006000 0.000000 -0.006000 -0.006000 0.000000 -0.006000 -0.006000 0.000000 -0.006000 0.000000 0.000000 -0.006000 0.000000 0.000000 -0.006000 0.006000 0.000000 -0.006000 0.006000 0.000000 -0.006000 0.006000 0.000000 -0.006000 0.006000 0.000000 -0.006000 0.006000 0.000000 -0.006000 0.006000 0.000000 -0.006000 0.006000 0.000000 -0.006000 0.006000 0.000000 -0.006000 0.009000 0.000000 -0.006000 -0.009000 0.000000 -0.006000 -0.006000 0.000000 -0.006000 -0.006000 0.000000 -0.006000 -0.006000 0.000000 -0.006000 -0.006000 0.000000 -0.006000 -0.006000 0.000000 -0.006000 -0.006000 0.000000 -0.006000 -0.006000 0.000000 -0.006000 -0.006000 0.000000 -0.006000 0.000000 0.000000 -0.006000 0.000000 0.000000 -0.006000 0.006000 0.000000 -0.006000 0.006000 0.000000 -0.006000 0.006000 0.000000 -0.006000 0.006000 0.000000 -0.006000 0.006000 0.000000 -0.006000 0.006000 0.000000 -0.006000 0.006000 0.000000 -0.006000 0.006000 0.000000 -0.006000 0.009000 0.000000 -0.006000 -0.009000 0.000000 -0.006000 -0.006000 0.000000 -0.006000 -0.006000 0.000000 -0.006000 -0.006000 0.000000 -0.006000 -0.006000 0.000000 0.000000 -0.006000 0.000000 0.000000 -0.006000 0.000000 -0.006000 -0.006000 0.000000 -0.006000 -0.006000 0.000000 -0.006000 0.000000 0.000000 -0.006000 0.000000 0.000000 -0.006000 0.006000 0.000000 -0.006000 0.006000 0.000000 -0.006000 0.006000 0.000000 -0.006000 0.006000 0.000000 -0.006000 0.006000 0.000000 -0.006000 0.006000 0.000000 -0.006000 0.006000 0.000000 -0.006000 0.006000 0.000000 -0.006000 0.009000 0.000000 -0.006000 -0.009000 0.000000 -0.006000 -0.006000 0.000000 -0.006000 -0.006000 0.000000 -0.006000 -0.006000 0.000000 -0.006000 -0.006000 0.000000 0.000000 -0.006000 0.000000 0.000000 -0.006000 0.000000 -0.006000 -0.006000 0.000000 -0.006000 -0.006000 0.000000 -0.006000 0.000000 0.000000 -0.006000 0.000000 0.000000 -0.006000 0.006000 0.000000 -0.006000 0.006000 0.000000 -0.006000 0.006000 0.000000 -0.006000 0.006000 0.000000 -0.006000 0.006000 0.000000 -0.006000 0.006000 0.000000 -0.006000 0.006000 0.000000 -0.006000 0.006