<VTKFile type="UnstructuredGrid" version="0.1" byte_order="LittleEndian">
  <UnstructuredGrid>
    <Piece NumberOfPoints="2000" NumberOfCells="0">
      <Points>
        <DataArray name="Position" type="Float32" NumberOfComponents="3" format="ascii">
-0.004224 -0.002537 0.000000 -0.004224 0.998309 0.000000 -0.004224 1.998309 0.000000 -0.004224 2.998309 0.000000 -0.005748 3.998310 0.000000 -0.005882 4.998310 0.000000 -0.005867 5.998310 0.000000 -0.005903 6.998310 0.000000 -0.004215 7.998311 0.000000 -0.005902 9.000000 0.000000 -0.004211 10.000001 0.000000 -0.004210 11.001689 0.000000 -0.004212 12.001690 0.000000 -0.004212 13.001690 0.000000 -0.004212 14.001690 0.000000 -0.004206 15.001690 0.000000 -0.004206 16.001691 0.000000 -0.004206 17.001691 0.000000 -0.004206 18.001691 0.000000 -0.004206 19.002537 0.000000 0.998306 -0.002537 0.000000 0.998306 0.998309 0.000000 0.996670 1.998309 0.000000 0.996406 2.998309 0.000000 0.996392 3.998310 0.000000 0.994970 4.998310 0.000000 0.995040 5.998310 0.000000 0.996388 6.998310 0.000000 0.996371 7.998311 0.000000 0.996624 9.000000 0.000000 0.996337 10.000001 0.000000 0.996593 11.001689 0.000000 0.998300 12.001690 0.000000 0.998300 13.001690 0.000000 0.998300 14.001690 0.000000 0.998297 15.001690 0.000000 0.998297 16.001691 0.000000 0.998297 17.001691 0.000000 0.996398 18.001691 0.000000 0.996190 19.002537 0.000000 1.998309 -0.002537 0.000000 1.998309 0.998309 0.000000 1.998305 1.998309 0.000000 1.996410 2.998309 0.000000 1.996427 3.998310 0.000000 1.996615 4.998310 0.000000 1.996608 5.998310 0.000000 1.996418 6.998310 0.000000 1.996372 7.998311 0.000000 1.996627 9.000000 0.000000 1.996362 10.000001 0.000000 1.996623 11.001689 0.000000 1.998309 12.001690 0.000000 1.998309 13.001690 0.000000 1.998309 14.001690 0.000000 1.998309 15.001690 0.000000 1.998309 16.001691 0.000000 1.998309 17.001691 0.000000 1.996408 18.001691 0.000000 1.996204 19.002537 0.000000 2.998309 -0.002537 0.000000 2.998309 0.998309 0.000000 2.998308 1.998309 0.000000 2.996416 2.998309 0.000000 2.996445 3.998310 0.000000 2.996623 4.998310 0.000000 2.996625 5.998310 0.000000 2.996623 6.998310 0.000000 2.996374 7.998311 0.000000 2.996631 9.000000 0.000000 2.996366 10.000001 0.000000 2.996645 11.001689 0.000000 2.998309 12.001690 0.000000 2.998309 13.001690 0.000000 2.998309 14.001690 0.000000 2.998309 15.001690 0.000000 2.998309 16.001691 0.000000 2.998309 17.001691 0.000000 2.996425 18.001691 0.000000 2.996215 19.002537 0.000000 3.998309 -0.002612 0.000000 3.998309 0.997500 0.000000 3.998309 1.997531 0.000000 3.996484 2.997682 0.000000 3.996538 3.997767 0.000000 3.996623 4.998859 0.000000 3.996629 5.998946 0.000000 3.996627 6.999094 0.000000 3.996374 7.999194 0.000000 3.996638 9.000001 0.000000 3.996385 10.000006 0.000000 3.996668 11.000901 0.000000 3.998309 12.001690 0.000000 3.998309 13.001690 0.000000 3.998309 14.001690 0.000000 3.998309 15.001691 0.000000 3.998309 16.001691 0.000000 3.998309 17.001692 0.000000 3.996432 18.002483 0.000000 3.996226 19.002537 0.000000 4.998310 -0.009206 0.000000 4.998310 0.994305 0.000000 4.998308 1.994915 0.000000 4.998303 2.995563 0.000000 4.997764 3.996604 0.000000 4.996626 4.996621 0.000000 4.996661 5.996629 0.000000 4.996628 6.996635 0.000000 4.996411 7.997358 0.000000 4.996658 8.998305 0.000000 4.996387 9.999243 0.000000 4.996668 10.999988 0.000000 4.998310 12.001690 0.000000 4.998310 13.001690 0.000000 4.998310 14.001690 0.000000 4.998310 15.001690 0.000000 4.998310 16.001691 0.000000 4.998310 17.001691 0.000000 4.996453 18.001691 0.000000 4.996251 19.002537 0.000000 5.998311 -0.004217 0.000000 5.998311 0.996658 0.000000 5.998311 1.997425 0.000000 5.998311 2.997762 0.000000 5.997921 3.998309 0.000000 5.996630 4.998866 0.000000 5.996666 5.999126 0.000000 5.998301 6.999195 0.000000 5.997339 7.999974 0.000000 5.996860 9.000004 0.000000 5.996403 10.000889 0.000000 5.996728 11.000969 0.000000 5.998310 12.001690 0.000000 5.998310 13.001690 0.000000 5.998310 14.001690 0.000000 5.998310 15.001691 0.000000 5.998310 16.001691 0.000000 5.998310 17.001692 0.000000 5.996453 18.002416 0.000000 5.997256 19.002537 0.000000 6.998311 -0.002662 0.000000 6.998311 0.997490 0.000000 6.998311 1.997525 0.000000 6.998311 2.998309 0.000000 6.998312 3.998310 0.000000 6.996840 4.998310 0.000000 6.996688 5.998310 0.000000 6.998306 6.999124 0.000000 6.997344 7.999215 0.000000 6.998300 8.999999 0.000000 6.997322 10.000001 0.000000 6.997449 11.001689 0.000000 6.998310 12.001690 0.000000 6.998310 13.001690 0.000000 6.998310 14.001690 0.000000 6.998310 15.001690 0.000000 6.998310 16.001691 0.000000 6.998310 17.001691 0.000000 6.996454 18.001691 0.000000 6.997258 19.002537 0.000000 7.998311 -0.002537 0.000000 7.998311 0.998309 0.000000 7.998311 1.998309 0.000000 7.998311 2.998309 0.000000 7.998313 3.998309 0.000000 7.998300 4.998310 0.000000 7.998300 5.998310 0.000000 7.998307 6.998310 0.000000 7.997347 7.998311 0.000000 7.998306 8.999999 0.000000 7.997330 10.000001 0.000000 7.997460 11.001689 0.000000 7.998310 12.001690 0.000000 7.998310 13.001690 0.000000 7.998310 14.001690 0.000000 7.998310 15.001690 0.000000 7.998310 16.001691 0.000000 7.998310 17.001691 0.000000 7.996458 18.001691 0.000000 7.997261 19.002537 0.000000 8.998311 -0.002537 0.000000 8.998311 0.998309 0.000000 8.998311 1.998309 0.000000 8.998311 2.998309 0.000000 8.998313 3.998310 0.000000 8.998307 4.998310 0.000000 8.998307 5.998310 0.000000 8.998307 6.998310 0.000000 8.997351 7.998311 0.000000 8.998307 9.000000 0.000000 8.997335 10.000001 0.000000 8.997464 11.001689 0.000000 8.998311 12.001690 0.000000 8.998311 13.001690 0.000000 8.998311 14.001690 0.000000 8.998311 15.001690 0.000000 8.998311 16.001691 0.000000 8.998311 17.001691 0.000000 8.996488 18.001691 0.000000 8.997263 19.002537 0.000000 9.998312 -0.002537 0.000000 9.998312 0.998309 0.000000 9.998312 1.998309 0.000000 9.998312 2.998309 0.000000 9.998313 3.998310 0.000000 9.998308 4.998310 0.000000 9.998309 5.998310 0.000000 9.998310 6.998310 0.000000 9.998298 7.998311 0.000000 9.998307 9.000000 0.000000 9.997337 10.000001 0.000000 9.997466 11.001689 0.000000 9.998311 12.001690 0.000000 9.998311 13.001690 0.000000 9.998311 14.001690 0.000000 9.998311 15.001690 0.000000 9.998311 16.001691 0.000000 9.998311 17.001691 0.000000 9.997358 18.001691 0.000000 9.997267 19.002537 0.000000 10.998312 -0.002537 0.000000 10.998312 0.998309 0.000000 10.998312 1.998309 0.000000 10.998312 2.998309 0.000000 10.998313 3.998310 0.000000 10.998315 4.998310 0.000000 10.998315 5.998310 0.000000 10.998313 6.998310 0.000000 10.998313 7.998311 0.000000 10.998313 9.000000 0.000000 10.997337 10.000001 0.000000 10.997475 11.001689 0.000000 10.998311 12.001690 0.000000 10.998311 13.001690 0.000000 10.998311 14.001690 0.000000 10.998311 15.001690 0.000000 10.998311 16.001691 0.000000 10.998311 17.001691 0.000000 10.997359 18.001691 0.000000 10.997269 19.002537 0.000000 11.998312 -0.002537 0.000000 11.998312 0.998309 0.000000 11.998312 1.998309 0.000000 11.998312 2.998309 0.000000 11.998314 3.998310 0.000000 11.998315 4.998310 0.000000 11.998315 5.998310 0.000000 11.998313 6.998310 0.000000 11.998313 7.998311 0.000000 11.998313 9.000000 0.000000 11.997339 10.000001 0.000000 11.997477 11.001689 0.000000 11.998312 12.001690 0.000000 11.998312 13.001690 0.000000 11.998312 14.001690 0.000000 11.998312 15.001690 0.000000 11.998312 16.001691 0.000000 11.998312 17.001691 0.000000 11.997366 18.001691 0.000000 11.997279 19.002537 0.000000 12.998313 -0.002537 0.000000 12.998313 0.998309 0.000000 12.998313 1.998309 0.000000 12.998313 2.998309 0.000000 12.998314 3.998310 0.000000 12.998315 4.998310 0.000000 12.998315 5.998310 0.000000 12.998314 6.998310 0.000000 12.998314 7.998311 0.000000 12.998314 9.000000 0.000000 12.998296 10.000001 0.000000 12.998294 11.001689 0.000000 12.998312 12.001690 0.000000 12.998312 13.001690 0.000000 12.998312 14.001690 0.000000 12.998312 15.001690 0.000000 12.998312 16.001691 0.000000 12.998312 17.001691 0.000000 12.997368 18.001691 0.000000 12.997281 19.002537 0.000000 13.998313 -0.002537 0.000000 13.998313 0.998309 0.000000 13.998313 1.998309 0.000000 13.998313 2.998309 0.000000 13.998314 3.998310 0.000000 13.998315 4.998310 0.000000 13.998315 5.998310 0.000000 13.998314 6.998310 0.000000 13.998314 7.998311 0.000000 13.998314 9.000000 0.000000 13.998306 10.000001 0.000000 13.998304 11.001689 0.000000 13.998312 12.001690 0.000000 13.998312 13.001690 0.000000 13.998312 14.001690 0.000000 13.998312 15.001690 0.000000 13.998312 16.001691 0.000000 13.998312 17.001691 0.000000 13.997370 18.001691 0.000000 13.998295 19.002537 0.000000 14.998313 -0.002537 0.000000 14.998313 0.998309 0.000000 14.998313 1.998309 0.000000 14.998313 2.998309 0.000000 14.998315 3.998310 0.000000 14.998316 4.998310 0.000000 14.998316 5.998310 0.000000 14.998314 6.998310 0.000000 14.998314 7.998311 0.000000 14.998314 9.000000 0.000000 14.998306 10.000001 0.000000 14.998306 11.001689 0.000000 14.998313 12.001690 0.000000 14.998313 13.001690 0.000000 14.998313 14.001690 0.000000 14.998313 15.001690 0.000000 14.998313 16.001691 0.000000 14.998313 17.001691 0.000000 14.997372 18.001691 0.000000 14.998307 19.002537 0.000000 15.998313 -0.002537 0.000000 15.998313 0.998309 0.000000 15.998313 1.998309 0.000000 15.998313 2.998309 0.000000 15.998315 3.998310 0.000000 15.998316 4.998310 0.000000 15.998316 5.998310 0.000000 15.998315 6.998310 0.000000 15.998315 7.998311 0.000000 15.998315 9.000000 0.000000 15.998309 10.000001 0.000000 15.998309 11.001689 0.000000 15.998314 12.001690 0.000000 15.998314 13.001690 0.000000 15.998314 14.001690 0.000000 15.998313 15.001690 0.000000 15.998313 16.001691 0.000000 15.998313 17.001691 0.000000 15.997397 18.001691 0.000000 15.998307 19.002537 0.000000 16.998314 -0.002537 0.000000 16.998314 0.998309 0.000000 16.998314 1.998309 0.000000 16.998314 2.998309 0.000000 16.998315 3.998310 0.000000 16.998316 4.998310 0.000000 16.998316 5.998310 0.000000 16.998315 6.998310 0.000000 16.998315 7.998311
[...]
      <PointData Vectors="vector">
        <DataArray type="Float32" Name="Velocity" NumberOfComponents="3" format="ascii">
-0.015000 -0.009000 0.000000 -0.015000 -0.006000 0.000000 -0.015000 -0.006000 0.000000 -0.015000 -0.006000 0.000000 -0.021000 -0.006000 0.000000 -0.021000 -0.006000 0.000000 -0.021000 -0.006000 0.000000 -0.021000 -0.006000 0.000000 -0.015000 -0.006000 0.000000 -0.021000 0.000000 0.000000 -0.015000 0.000000 0.000000 -0.015000 0.006000 0.000000 -0.015000 0.006000 0.000000 -0.015000 0.006000 0.000000 -0.015000 0.006000 0.000000 -0.015000 0.006000 0.000000 -0.015000 0.006000 0.000000 -0.015000 0.006000 0.000000 -0.015000 0.006000 0.000000 -0.015000 0.009000 0.000000 -0.006000 -0.009000 0.000000 -0.006000 -0.006000 0.000000 -0.018000 -0.006000 0.000000 -0.018000 -0.006000 0.000000 -0.018000 -0.006000 0.000000 -0.018000 -0.006000 0.000000 -0.018000 -0.006000 0.000000 -0.018000 -0.006000 0.000000 -0.018000 -0.006000 0.000000 -0.012000 0.000000 0.000000 -0.018000 0.000000 0.000000 -0.018000 0.006000 0.000000 -0.006000 0.006000 0.000000 -0.006000 0.006000 0.000000 -0.006000 0.006000 0.000000 -0.006000 0.006000 0.000000 -0.006000 0.006000 0.000000 -0.006000 0.006000 0.000000 -0.018000 0.006000 0.000000 -0.018000 0.009000 0.000000 -0.006000 -0.009000 0.000000 -0.006000 -0.006000 0.000000 -0.006000 -0.006000 0.000000 -0.018000 -0.006000 0.000000 -0.018000 -0.006000 0.000000 -0.012000 -0.006000 0.000000 -0.012000 -0.006000 0.000000 -0.018000 -0.006000 0.000000 -0.018000 -0.006000 0.000000 -0.012000 0.000000 0.000000 -0.018000 0.000000 0.000000 -0.018000 0.006000 0.000000 -0.006000 0.006000 0.000000 -0.006000 0.006000 0.000000 -0.006000 0.006000 0.000000 -0.006000 0.006000 0.000000 -0.006000 0.006000 0.000000 -0.006000 0.006000 0.000000 -0.018000 0.006000 0.000000 -0.018000 0.009000 0.000000 -0.006000 -0.009000 0.000000 -0.006000 -0.006000 0.000000 -0.006000 -0.006000 0.000000 -0.018000 -0.006000 0.000000 -0.018000 -0.005997 0.000000 -0.012000 -0.006000 0.000000 -0.012000 -0.006000 0.000000 -0.012000 -0.006007 0.000000 -0.018000 -0.006000 0.000000 -0.012000 -0.000000 0.000000 -0.018000 -0.000000 0.000000 -0.018000 0.006000 0.000000 -0.006000 0.006000 0.000000 -0.006000 0.006000 0.000000 -0.006000 0.006000 0.000000 -0.006000 0.006000 0.000000 -0.006000 0.006000 0.000000 -0.006000 0.006000 0.000000 -0.018000 0.006000 0.000000 -0.018000 0.009000 0.000000 -0.006000 -0.015000 0.000000 -0.006000 -0.006000 0.000000 -0.005998 -0.011979 0.000000 -0.018001 -0.011929 0.000000 -0.011988 -0.011975 0.000000 -0.012013 0.000000 0.000000 -0.012007 0.000001 0.000000 -0.011993 0.000027 0.000000 -0.018000 0.000000 0.000000 -0.018000 0.000010 0.000000 -0.018000 0.000034 0.000000 -0.018000 0.000041 0.000000 -0.006000 0.006000 0.000000 -0.006000 0.006000 0.000000 -0.006000 0.006000 0.000000 -0.006000 0.006000 0.000000 -0.006000 0.006000 0.000000 -0.005998 0.006000 0.000000 -0.018002 0.012000 0.000000 -0.018000 0.009000 0.000000 -0.006000 -0.033000 0.000000 -0.006000 -0.030000 0.000000 -0.006000 -0.018020 0.000000 -0.006000 -0.006071 0.000000 -0.012000 -0.012035 0.000000 -0.012001 -0.012001 0.000000 -0.012000 -0.012001 0.000000 -0.012000 -0.012055 0.000000 -0.018000 -0.012044 0.000000 -0.018000 -0.006031 0.000000 -0.018000 -0.000078 0.000000 -0.018000 -0.000092 0.000000 -0.006000 0.006000 0.000000 -0.006000 0.006000 0.000000 -0.006000 0.006000 0.000000 -0.006000 0.006000 0.000000 -0.006000 0.006000 0.000000 -0.006000 0.006000 0.000000 -0.018000 0.006000 0.000000 -0.018000 0.009000 0.000000 -0.006000 -0.015000 0.000000 -0.006000 -0.012000 0.000000 -0.006000 -0.011981 0.000000 -0.006000 -0.011929 0.000000 -0.011988 -0.005958 0.000000 -0.012012 0.000000 0.000000 -0.012009 -0.005999 0.000000 -0.005990 0.000051 0.000000 -0.012001 0.000091 0.000000 -0.017999 0.000021 0.000000 -0.018001 0.006043 0.000000 -0.018001 0.000051 0.000000 -0.005999 0.006000 0.000000 -0.006000 0.006000 0.000000 -0.006000 0.006000 0.000000 -0.006000 0.006000 0.000000 -0.006000 0.006000 0.000000 -0.005998 0.006000 0.000000 -0.018002 0.012000 0.000000 -0.012000 0.009000 0.000000 -0.006000 -0.015000 0.000000 -0.006000 -0.012000 0.000000 -0.006000 -0.005999 0.000000 -0.006000 -0.006000 0.000000 -0.006000 -0.006000 0.000000 -0.018000 -0.006000 0.000000 -0.018000 -0.006000 0.000000 -0.006000 -0.000017 0.000000 -0.012000 -0.000048 0.000000 -0.006000 -0.000000 0.000000 -0.012000 -0.000000 0.000000 -0.012000 0.006000 0.000000 -0.006000 0.006000 0.000000 -0.006000 0.006000 0.000000 -0.006000 0.006000 0.000000 -0.006000 0.006000 0.000000 -0.006000 0.006000 0.000000 -0.006000 0.006000 0.000000 -0.018000 0.006000 0.000000 -0.012000 0.009000 0.000000 -0.006000 -0.009000 0.000000 -0.006000 -0.006000 0.000000 -0.006000 -0.006000 0.000000 -0.006000 -0.006000 0.000000 -0.006000 -0.006000 0.000000 -0.006000 -0.006000 0.000000 -0.006000 -0.006000 0.000000 -0.006000 -0.006000 0.000000 -0.012000 -0.006000 0.000000 -0.006000 0.000000 0.000000 -0.012000 0.000000 0.000000 -0.012000 0.006000 0.000000 -0.006000 0.006000 0.000000 -0.006000 0.006000 0.000000 -0.006000 0.006000 0.000000 -0.006000 0.006000 0.000000 -0.006000 0.006000 0.000000 -0.006000 0.006000 0.000000 -0.018000 0.006000 0.000000 -0.012000 0.009000 0.000000 -0.006000 -0.009000 0.000000 -0.006000 -0.006000 0.000000 -0.006000 -0.006000 0.000000 -0.006000 -0.006000 0.000000 -0.006000 -0.006000 0.000000 -0.006000 -0.006000 0.000000 -0.006000 -0.006000 0.000000 -0.006000 -0.006000 0.000000 -0.012000 -0.006000 0.000000 -0.006000 0.000000 0.000000 -0.012000 0.000000 0.000000 -0.012000 0.006000 0.000000 -0.006000 0.006000 0.000000 -0.006000 0.006000 0.000000 -0.006000 0.006000 0.000000 -0.006000 0.006000 0.000000 -0.006000 0.006000 0.000000 -0.006000 0.006000 0.000000 -0.018000 0.006000 0.000000 -0.012000 0.009000 0.000000 -0.006000 -0.009000 0.000000 -0.006000 -0.006000 0.000000 -0.006000 -0.006000 0.000000 -0.006000 -0.006000 0.000000 -0.006000 -0.006000 0.000000 -0.006000 -0.006000 0.000000 -0.006000 -0.006000 0.000000 -0.006000 -0.006000 0.000000 -0.006000 -0.006000 0.000000 -0.006000 -0.000000 0.000000 -0.012000 0.000000 0.000000 -0.012000 0.006000 0.000000 -0.006000 0.006000 0.000000 -0.006000 0.006000 0.000000 -0.006000 0.006000 0.000000 -0.006000 0.006000 0.000000 -0.006000 0.006000 0.000000 -0.006000 0.006000 0.000000 -0.012000 0.006000 0.000000 -0.012000 0.009000 0.000000 -0.006000 -0.009000 0.000000 -0.006000 -0.006000 0.000000 -0.006000 -0.006000 0.000000 -0.006000 -0.006000 0.000000 -0.006000 -0.006000 0.000000 -0.006000 -0.006000 0.000000 -0.006000 -0.006000 0.000000 -0.006000 -0.006000 0.000000 -0.006000 -0.006000 0.000000 -0.006000 0.000000 0.000000 -0.012000 0.000000 0.000000 -0.012000 0.006000 0.000000 -0.006000 0.006000 0.000000 -0.006000 0.006000 0.000000 -0.006000 0.006000 0.000000 -0.006000 0.006000 0.000000 -0.006000 0.006000 0.000000 -0.006000 0.006000 0.000000 -0.012000 0.006000 0.000000 -0.012000 0.009000 0.000000 -0.006000 -0.009000 0.000000 -0.006000 -0.006000 0.000000 -0.006000 -0.006000 0.000000 -0.006000 -0.006000 0.000000 -0.006000 -0.006000 0.000000 -0.006000 -0.006000 0.000000 -0.006000 -0.006000 0.000000 -0.006000 -0.006000 0.000000 -0.006000 -0.006000 0.000000 -0.006000 0.000000 0.000000 -0.012000 0.000000 0.000000 -0.012000 0.006000 0.000000 -0.006000 0.006000 0.000000 -0.006000 0.006000 0.000000 -0.006000 0.006000 0.000000 -0.006000 0.006000 0.000000 -0.006000 0.006000 0.000000 -0.006000 0.006000 0.000000 -0.012000 0.006000 0.000000 -0.012000 0.009000 0.000000 -0.006000 -0.009000 0.000000 -0.006000 -0.006000 0.000000 -0.006000 -0.006000 0.000000 -0.006000 -0.006000 0.000000 -0.006000 -0.006000 0.000000 -0.006000 -0.006000 0.000000 -0.006000 -0.006000 0.000000 -0.006000 -0.006000 0.000000 -0.006000 -0.006000 0.000000 -0.006000 0.000000 0.000000 -0.006000 0.000000 0.000000 -0.006000 0.006000 0.000000 -0.006000 0.006000 0.000000 -0.006000 0.006000 0.000000 -0.006000 0.006000 0.000000 -0.006000 0.006000 0.000000 -0.006000 0.006000 0.000000 -0.006000 0.006000 0.000000 -0.012000 0.006000 0.000000 -0.012000 0.009000 0.000000 -0.006000 -0.009000 0.000000 -0.006000 -0.006000 0.000000 -0.006000 -0.006000 0.000000 -0.006000 -0.006000 0.000000 -0.006000 -0.006000 0.000000 -0.006000 -0.006000 0.000000 -0.006000 -0.006000 0.000000 -0.006000 -0.006000 0.000000 -0.006000 -0.006000 0.000000 -0.006000 0.000000 0.000000 -0.006000 0.000000 0.000000 -0.006000 0.006000 0.000000 -0.006000 0.006000 0.000000 -0.006000 0.006000 0.000000 -0.006000 0.006000 0.000000 -0.006000 0.006000 0.000000 -0.006000 0.006000 0.000000 -0.006000 0.006000 0.000000 -0.012000 0.006000 0.000000 -0.006000 0.009000 0.000000 -0.006000 -0.009000 0.000000 -0.006000 -0.006000 0.000000 -0.006000 -0.006000 0.000000 -0.006000 -0.006000 0.000000 -0.006000 -0.006000 0.000000 -0.006000 -0.006000 0.000000 -0.006000 -0.006000 0.000000 -0.006000 -0.006000 0.000000 -0.006000 -0.006000 0.000000 -0.006000 0.000000 0.000000 -0.006000 0.000000 0.000000 -0.006000 0.006000 0.000000 -0.006000 0.006000 0.000000 -0.006000 0.006000 0.000000 -0.006000 0.006000 0.000000 -0.006000 0.006000 0.000000 -0.006000 0.006000 0.000000 -0.006000 0.006000 0.000000 -0.012000 0.006000 0.000000 -0.006000 0.009000 0.000000 -0.006000 -0.009000 0.000000 -0.006000 -0.006000 0.000000 -0.006000 -0.006000 0.000000 -0.006000 -0.006000 0.000000 -0.006000 -0.006000 0.000000 -0.006000 -0.006000 0.000000 -0.006000 -0.006000 0.000000 -0.006000 -0.006000 0.000000 -0.006000 -0.006000 0.000000 -0.006000 0.000000 0.000000 -0.006000 0.000000 0.000000 -0.006000 0.006000 0.000000 -0.006000 0.006000 0.000000 -0.006000 0.006000 0.000000 -0.006000 0.006000 0.000000 -0.006000 0.006000 0.000000 -0.006000 0.006000 0.000000 -0.006000 0.006000 0.000000 -0.012000 0.006000 0.000000 -0.006000 0.009000 0.000000 -0.006000 -0.009000 0.000000 -0.006000 -0.006000 0.000000 -0.006000 -0.006000 0.000000 -0.006000 -0.006000 0.000000 -0.006000 -0.006000 0.000000 -0.006000 -0.006000 0.000000 -0.006000 -0.006000 0.000000 -0.006000 -0.006000 0.000000 -0.006000 -0.006000 0.000000 -0.006000 0.000000 0.000000 -0.006000 0.000000 0.000000 -0.006000 0.006000 0.000000 -0.006000 0.006000 0.000000 -0.006000 0.006000 0.000000 -0.006000 0.006000 0.000000 -0.006000 0.006000 0.000000 -0.006000 0.006000 0.000000 -0.006000 0.006000 0.000000 -0.012000 0.006000 0.000000 -0.006000 0.009000 0.000000 -0.006000 -0.009000 0.000000 -0.006000 -0.006000 0.000000 -0.006000 -0.006000 0.000000 -0.006000 -0.006000 0.000000 -0.006000 -0.006000 0.000000 -0.006000 -0.006000 0.000000 -0.006000 -0.006000 0.000000 -0.006000 -0.006000 0.000000 -0.006000 -0.006000 0.000000 -0.006000 0.000000 0.000000 -0.006000 0.000000 0.000000 -0.006000 0.006000 0.000000 -0.006000 0.006000 0.000000 -0.006000 0.006000 0.000000 -0.006000 0.006000 0.000000 -0.006000 0.006000 0.000000 -0.006000 0.006000 0.000000 -0.006000 0.006000 0.000000 -0.006000 0.006000 0.000000 -0.006000 0.009000 0.000000 -0.006000 -0.009000 0.000000 -0.006000 -0.006000 0.000000 -0.006000 -0.006000 0.000000 -0.006000 -0.006000 0.000000 -0.006000 -0.006000 0.000000 -0.006000 -0.006000 0.000000 -0.006000 -0.006000 0.000000 -0.006000 -0.006000 0.000000 -0.006000 -0.006000 0.000000 -0.006000 0.000000 0.000000 -0.006000 0.000000 0.000000 -0.006000 0.006000 0.000000 -0.006000 0.006000 0.000000 -0.006000 0.006000 0.000000 -0.006000 0.006000 0.000000 -0.006000 0.006000 0.000000 -0.006000 0.006000 0.000000 -0.006000 0.006000 0.000000 -0.006000 0.006000 0.000000 -0.006000 0.009000 0.000000 -0.006000 -0.009000 0.000000 -0.006000 -0.006000 0.000000 -0.006000 -0.006000 0.000000 -0.006000 -0.006000 0.000000 -0.006000 -0.006000 0.000000 -0.006000 -0.006000 0.000000 -0.006000 -0.006000 0.000000 -0.006000 -0.006000 0.000000 -0.006000 -0.006000 0.000000 -0.006000 0.000000 0.000000 -0.006000 0.000000 0.000000 -0.006000 0.006000 0.000000 -0.006000 0.006000 0.000000 -0.006000 0.006000 0.000000 -0.006000 0.006000 0.000000 -0.006000 0.006000 0.000000 -0.006000 0.006000 0.000000 -0.006000 0.006000 0.000000 -0.006000 0.006000 0.000000 -0.006000 0.009000 0.000000 -0.006000 -0.009000 0.000000 -0.006000 -0.006000 0.000000 -0.006000 -0.006000 0.000000 -0.006000 -0.006000 0.000000 -0.006000 -0.006000 0.000000 -0.006000 -0.006000 0.000000 -0.006000 -0.006000 0.000000 -0.006000 -0.006000 0.000000 -0.006000 -0.006000 0.000000 -0.006000 0.000000 0.000000 -0.006000 0.000000 0.000000 -0.006000 0.006000 0.000000 -0.006000 0.006000 0.000000 -0.006000 0.006000 0.000000 -0.006000 0.006000 0.000000 -0.006000 0.006000 0.000000 -0.006000 0.006000 0.000000 -0.006000 0.006000 0.000000 -0.006000 0.006000 0.000000 -0.006000 0.009000 0.000000 -0.006000 -0.009000 0.000000 -0.006000 -0.006000 0.000000 -0.006000 -0.006000 0.000000 -0.006000 -0.006000 0.000000 -0.006000 -0.006000 0.000000 -0.006000 -0.006000 0.000000 -0.006000 -0.006000 0.000000 -0.006000 -0.006000 0.000000 -0.006000 -0.006000 0.000000 -0.006000 0.000000 0.000000 -0.006000 0.000000 0.000000 -0.006000 0.006000 0.000000 -0.006000 0.006000 0.000000 -0.006000 0.006000 0.000000 -0.006000 0.006000 0.000000 -0.006000 0.006000 0.000000 -0.006000 0.006000 0.000000 -0.006000 0.006000 0.000000 0.000000 0.006000 0.000000 -0.006000 0.009000 0.000000 -0.006000 -0.009000 0.000000 -0.006000 -0.006000 0.000000 -0.006000 -0.006000 0.000000 -0.006000 -0.006000 0.000000 -0.006000 -0.006000 0.000000 -0.006000 -0.006000 0.000000 -0.006000 -0.006000 0.000000 -0.006000 -0.006000 0.000000 -0.006000 -0.006000 0.000000 -0.006000 0.000000 0.000000 -0.006000 0.000000 0.000000 -0.006000 0.006000 0.000000 -0.006000 0.006000 0.000000 -0.006000 0.006000 0.000000 -0.006000 0.006000 0.000000 -0.006000 0.006000 0.000000 -0.006000 0.006000 0.000000 -0.006000 0.006000 0.000000 0.000000 0.006000 0.000000 -0.006000 0.009000 0.000000 -0.006000 -0.009000 0.000000 -0.006000 -0.006000 0.000000 -0.006000 -0.006000 0.000000 -0.006000 -0.006000 0.000000 -0.006000 -0.006000 0.000000 -0.006000 -0.006000 0.000000 -0.006000 -0.006000 0.000000 -0.006000 -0.006000 0.000000 -0.006000 -0.006000 0.000000 -0.006000 0.000000 0.000000 -0.006000 0.000000 0.000000 -0.006000 0.006000 0.000000 -0.006000 0.006000 0.000000 -0.006000 0.006000 0.000000 -0.006000 0.006000 0.000000 -0.006000 0.006000 0.000000 -0.006000 0.006000 0.000000 -0.006000 0.006000 0.000000 -0.000000 0.006000 0.000000 -0.006000 0.009000 0.000000 -0.006000 -0.009000 0.000000 -0.006000 -0.006000 0.000000 -0.006000 -0.006000 0.000000 -0.006000 -0.006000 0.000000 -0.006000 -0.006000 0.000000 -0.006000 -0.006000 0.000000 -0.006000 -0.006000 0.000000 -0.006000 -0.006000 0.000000 -0.006000 -0.006000 0.000000 -0.006000 0.000000 0.000000 -0.006000 0.000000 0.000000 -0.006000 0.006000 0.000000 -0.006000 0.006000 0.000000 -0.006000 0.006000 0.000000 -0.006000 0.006000 0.000000 -0.006000 0.006000 0.000000 -0.006000 0.006000 0.000000 -0.006000 0.006000 0.000000 0.000000 0.006000 0.000000 -0.006000 0.009000 0.000000 -0.006000 -0.009000 0.000000 -0.006000 -0.006000 0.000000 -0.006000 -0.006000 0.000000 -0.006000 -0.006000 0.000000 -0.006000 -0.006000 0.000000 -0.006000 -0.006000 0.000000 -0.006000 -0.006000 0.000000 -0.006000 -0.006000 0.000000 -0.006000 -0.006000 0.000000 -0.006000 0.000000 0.000000 -0.006000 0.000000 0.000000 -0.000000 0.006000 0.000000 -0.006000 0.006000 0.000000 -0.006000 0.006000 0.000000 -0.006000 0.006000 0.000000 -0.006000 0.006000 0.000000 -0.006000 0.006000 0.000000 -0.006000 0.006000 0.000000 0.000000 0.006000 0.000000 -0.240001 0.009000 0.000000 -0.006000 -0.009000 0.000000 -0.006000 -0.006000 0.000000 -0.006000 -0.006000 0.000000 -0.006000 -0.006000 0.000000 0.000000 -0.006000 0.000000 -0.006000 -0.006000 0.000000 -0.006000 -0.006000 0.000000 -0.006000 -0.006000 0.000000 -0.006000 -0.006000 0.000000 -0.006000 0.000000 0.000000 -0.000000 0.000000 0.000000 0.000000 0.006000 0.000000 -0.006000 0.006000 0.000000 -0.006000 0.006000 0.000000 -0.006000 0.006000 0.000000 -0.006000 0.006000 0.000000 -0.006000 0.006000 0.000000 -0.006000 0.006000 0.000000 0.006000 0.006000 0.000000 -0.255001 0.009000 0.000000 -0.006000 -0.009000 0.000000 -0.006000 -0.006000 0.000000 -0.006000 -0.006000 0.000000 -0.006000 -0.006000 0.000000 -0.000000 -0.006000 0.000000 -0.006000 -0.006000 0.000000 -0.006000 -0.006000 0.000000 -0.006000 -0.006000 0.000000 -0.006000 -0.006000 0.000000 -0.006000 -0.000000 0.000000 -0.000000 -0.000000 0.000000 -0.000000 0.006001 0.000000 -0.006000 0.006000 0.000000 -0.006000 0.006000 0.000000 -0.006000 0.006000 0.000000 -0.006000 0.006000 0.000000 -0.006000 0.006000 0.000000 -0.006000 0.006000 0.000000 0.006000 0.006000 0.000000 -0.228005 0.009086 0.000000 -0.006000 -0.009000 0.000000 -0.006000 -0.012000 0.000000 -0.006000 -0.011939 0.000000 -0.006000 -0.011969 0.000000 -0.000001 -0.005980 0.000000 0.000002 -0.005948 0.000000 -0.006001 0.000066 0.000000 -0.006001 0.000007 0.000000 0.000001 0.000022 0.000000 -0.000001 -0.005817 0.000000 0.000002 0.006117 0.000000 0.000002 0.000501 0.000000 -0.006000 0.006000 0.000000 -0.006000 0.006000 0.000000 -0.006000 0.006000 0.000000 -0.006000 0.006000 0.000000 -0.006000 0.006000 0.000000 -0.006002 0.006000 0.000000 0.012181 -0.080705 0.000000 -0.225519 -0.096666 0.000000 -0.011821 -1.497024 0.000000 -0.011803 -1.506027 0.000000 -0.013297 -1.527081 0.000000 -0.010607 -1.452064 0.000000 -0.013468 -1.527040 0.000000 -0.011859 -1.533121 0.000000 -0.001068 -1.527149 0.000000 -0.023476 -1.473088 0.000000 -0.009964 -1.506850 0.000000 -0.023745 -1.494650 0.000000 0.011633 -4.091959 0.000000 0.008194 -6.979737 0.000000 -0.062634 -3.845717 0.000000 -0.021268 -6.821894 0.000000 -0.016557 -3.117304 0.000000 -0.074019 -7.266622 0.000000 0.053438 -0.914511 0.000000 -0.071866 -8.246660 0.000000 -0.408713 0.880917 0.000000 0.645056 -1.167174 0.000000 -0.011829 -1.515033 0.000000 -0.011789 -1.566041 0.000000 -0.014277 -1.542026 0.000000 -0.003732 -1.518023 0.000000 -0.012123 -1.521086 0.000000 -0.003661 -1.584079 0.000000 0.001722 -1.545181 0.000000 -0.014461 -1.431100 0.000000 -0.010468 -1.512911 0.000000 -0.018099 -1.489382 0.000000 0.011410 -4.289908 0.000000 0.012652 -6.817274 0.000000 -0.051549 -4.716533 0.000000 0.006747 -6.235528 0.000000 -0.002498 -4.801414 0.000000 -0.057120 -6.049041 0.000000 0.078355 -4.018421 0.000000 -0.068672 -6.266360 0.000000 -0.587813 -4.080116 0.000000 1.230912 -5.939838 0.000000 -0.011836 -1.527028 0.000000 -0.011974 -1.542023 0.000000 -0.014226 -1.542061 0.000000 -0.009481 -1.506015 0.000000 -0.008177 -1.518052 0.000000 0.000843 -1.527035 0.000000 0.010424 -1.512183 0.000000 -0.013582 -1.428178 0.000000 0.007470 -1.510001 0.000000 -0.016604 -1.461011 0.000000 0.002284 -3.496167 0.000000 0.015606 -7.497721 0.000000 -0.053021 -5.008489 0.000000 -0.000388 -5.981243 0.000000 -0.002886 -4.878004 0.000000 -0.046618 -5.930458 0.000000 0.081372 -4.068996 0.000000 -0.065061 -6.192952 0.000000 -0.492353 -4.259041 0.000000 1.275806 -5.730130 0.000000 -0.011831 -1.509012 0.000000 -0.012483 -1.410015 0.000000 -0.007173 -1.629041 0.000000 0.007565 -1.497078 0.000000 -0.010671 -1.542067 0.000000 -0.001441 -1.521012 0.000000 0.001543 -1.476061 0.000000 -0.011039 -1.494163 0.000000 0.007097 -1.542757 0.000000 -0.010647 -1.477061 0.000000 0.009633 -4.591818 0.000000 0.029503 -6.666867 0.000000 -0.049900 -4.616149 0.000000 0.002865 -6.315891 0.000000 -0.000028 -4.703297 0.000000 -0.044553 -6.013416 0.000000 0.115214 -4.107584 0.000000 -0.056394 -6.339205 0.000000 -0.510077 -3.728033 0.000000 1.252954 -6.401197 0.000000 -0.005994 -1.587060 0.000000 -0.006638 -1.530009 0.000000 -0.000479 -1.524062 0.000000 -0.004491 -1.475999 0.000000 0.000021 -1.464034 0.000000 -0.001397 -1.566144 0.000000 0.003442 -1.494007 0.000000 -0.004648 -1.509230 0.000000 0.000502 -1.429268 0.000000 -0.005416 -1.507447 0.000000 0.018956 -4.250824 0.000000 0.017804 -6.968518 0.000000 -0.039445 -4.592823 0.000000 -0.000499 -6.365599 0.000000 0.002229 -4.790950 0.000000 -0.031001 -5.956294 0.000000 0.095839 -4.277387 0.000000 -0.041615 -6.125935 0.000000 -0.4923