<VTKFile type="UnstructuredGrid" version="0.1" byte_order="LittleEndian">
  <UnstructuredGrid>
    <Piece NumberOfPoints="2000" NumberOfCells="0">
      <Points>
        <DataArray name="Position" type="Float32" NumberOfComponents="3" format="ascii">
-0.001659 -0.000998 0.000000 -0.001659 0.999335 0.000000 -0.001659 1.999335 0.000000 -0.001659 2.999335 0.000000 -0.002157 3.999336 0.000000 -0.002291 4.999336 0.000000 -0.002276 5.999336 0.000000 -0.002312 6.999336 0.000000 -0.001650 7.999337 0.000000 -0.002311 9.000000 0.000000 -0.001646 10.000001 0.000000 -0.001645 11.000663 0.000000 -0.001647 12.000664 0.000000 -0.001647 13.000664 0.000000 -0.001647 14.000664 0.000000 -0.001641 15.000664 0.000000 -0.001641 16.000665 0.000000 -0.001641 17.000665 0.000000 -0.001641 18.000665 0.000000 -0.001641 19.000998 0.000000 0.999332 -0.000998 0.000000 0.999332 0.999335 0.000000 0.999332 1.999335 0.000000 0.999332 2.999335 0.000000 0.998590 3.999336 0.000000 0.998048 4.999336 0.000000 0.998118 5.999336 0.000000 0.998675 6.999336 0.000000 0.999327 7.999337 0.000000 0.998676 9.000000 0.000000 0.999325 10.000001 0.000000 0.999325 11.000663 0.000000 0.999326 12.000664 0.000000 0.999326 13.000664 0.000000 0.999326 14.000664 0.000000 0.999323 15.000664 0.000000 0.999323 16.000665 0.000000 0.999323 17.000665 0.000000 0.999323 18.000665 0.000000 0.999268 19.000998 0.000000 1.999335 -0.000998 0.000000 1.999335 0.999335 0.000000 1.999335 1.999335 0.000000 1.999335 2.999335 0.000000 1.999331 3.999336 0.000000 1.998667 4.999336 0.000000 1.998660 5.999336 0.000000 1.998679 6.999336 0.000000 1.999335 7.999337 0.000000 1.998679 9.000000 0.000000 1.999335 10.000001 0.000000 1.999335 11.000663 0.000000 1.999335 12.000664 0.000000 1.999335 13.000664 0.000000 1.999335 14.000664 0.000000 1.999335 15.000664 0.000000 1.999335 16.000665 0.000000 1.999335 17.000665 0.000000 1.999335 18.000665 0.000000 1.999282 19.000998 0.000000 2.999335 -0.000998 0.000000 2.999335 0.999335 0.000000 2.999335 1.999335 0.000000 2.999335 2.999335 0.000000 2.999334 3.999336 0.000000 2.998675 4.999336 0.000000 2.998677 5.999336 0.000000 2.998683 6.999336 0.000000 2.999335 7.999337 0.000000 2.998683 9.000000 0.000000 2.999335 10.000001 0.000000 2.999335 11.000663 0.000000 2.999335 12.000664 0.000000 2.999335 13.000664 0.000000 2.999335 14.000664 0.000000 2.999335 15.000664 0.000000 2.999335 16.000665 0.000000 2.999335 17.000665 0.000000 2.999335 18.000665 0.000000 2.999293 19.000998 0.000000 3.999335 -0.000998 0.000000 3.999335 0.999335 0.000000 3.999335 1.999335 0.000000 3.999335 2.999335 0.000000 3.999334 3.999336 0.000000 3.998677 4.999336 0.000000 3.998682 5.999336 0.000000 3.999329 6.999336 0.000000 3.999335 7.999337 0.000000 3.999329 9.000000 0.000000 3.999335 10.000001 0.000000 3.999335 11.000663 0.000000 3.999335 12.000664 0.000000 3.999335 13.000664 0.000000 3.999335 14.000664 0.000000 3.999335 15.000664 0.000000 3.999335 16.000665 0.000000 3.999335 17.000665 0.000000 3.999335 18.000665 0.000000 3.999304 19.000998 0.000000 4.999336 -0.003563 0.000000 4.999336 0.997994 0.000000 4.999336 1.998015 0.000000 4.999336 2.998021 0.000000 4.999335 3.998661 0.000000 4.998678 4.998673 0.000000 4.998713 5.998682 0.000000 4.999334 6.998694 0.000000 4.999335 7.999336 0.000000 4.999334 8.999336 0.000000 4.999335 9.999336 0.000000 4.999335 11.000001 0.000000 4.999336 12.000664 0.000000 4.999336 13.000664 0.000000 4.999336 14.000664 0.000000 4.999336 15.000664 0.000000 4.999336 16.000665 0.000000 4.999336 17.000665 0.000000 4.999336 18.000665 0.000000 4.999308 19.000998 0.000000 5.999337 -0.001652 0.000000 5.999337 0.998710 0.000000 5.999337 1.999328 0.000000 5.999337 2.999335 0.000000 5.999337 3.999335 0.000000 5.998684 4.999335 0.000000 5.998718 5.999336 0.000000 5.999334 6.999961 0.000000 5.999336 7.999999 0.000000 5.999334 9.000000 0.000000 5.999336 10.000001 0.000000 5.999335 11.000663 0.000000 5.999336 12.000664 0.000000 5.999336 13.000664 0.000000 5.999336 14.000664 0.000000 5.999336 15.000664 0.000000 5.999336 16.000665 0.000000 5.999336 17.000665 0.000000 5.999336 18.000665 0.000000 5.999310 19.000998 0.000000 6.999337 -0.000998 0.000000 6.999337 0.999335 0.000000 6.999337 1.999335 0.000000 6.999337 2.999335 0.000000 6.999337 3.999336 0.000000 6.999327 4.999336 0.000000 6.999327 5.999336 0.000000 6.999335 6.999337 0.000000 6.999336 7.999337 0.000000 6.999335 8.999999 0.000000 6.999336 10.000001 0.000000 6.999336 11.000663 0.000000 6.999336 12.000664 0.000000 6.999336 13.000664 0.000000 6.999336 14.000664 0.000000 6.999336 15.000664 0.000000 6.999336 16.000665 0.000000 6.999336 17.000665 0.000000 6.999336 18.000665 0.000000 6.999313 19.000998 0.000000 7.999337 -0.000998 0.000000 7.999337 0.999335 0.000000 7.999337 1.999335 0.000000 7.999337 2.999335 0.000000 7.999338 3.999336 0.000000 7.999333 4.999336 0.000000 7.999333 5.999336 0.000000 7.999336 6.999336 0.000000 7.999337 7.999337 0.000000 7.999336 8.999999 0.000000 7.999336 10.000001 0.000000 7.999336 11.000663 0.000000 7.999336 12.000664 0.000000 7.999336 13.000664 0.000000 7.999336 14.000664 0.000000 7.999336 15.000664 0.000000 7.999336 16.000665 0.000000 7.999336 17.000665 0.000000 7.999336 18.000665 0.000000 7.999315 19.000998 0.000000 8.999337 -0.000998 0.000000 8.999337 0.999335 0.000000 8.999337 1.999335 0.000000 8.999337 2.999335 0.000000 8.999338 3.999336 0.000000 8.999334 4.999336 0.000000 8.999335 5.999336 0.000000 8.999337 6.999336 0.000000 8.999337 7.999337 0.000000 8.999337 9.000000 0.000000 8.999337 10.000001 0.000000 8.999337 11.000663 0.000000 8.999337 12.000664 0.000000 8.999337 13.000664 0.000000 8.999337 14.000664 0.000000 8.999337 15.000664 0.000000 8.999337 16.000665 0.000000 8.999337 17.000665 0.000000 8.999337 18.000665 0.000000 8.999319 19.000998 0.000000 9.999338 -0.000998 0.000000 9.999338 0.999335 0.000000 9.999338 1.999335 0.000000 9.999338 2.999335 0.000000 9.999338 3.999336 0.000000 9.999336 4.999336 0.000000 9.999336 5.999336 0.000000 9.999338 6.999336 0.000000 9.999337 7.999337 0.000000 9.999337 9.000000 0.000000 9.999337 10.000001 0.000000 9.999337 11.000663 0.000000 9.999337 12.000664 0.000000 9.999337 13.000664 0.000000 9.999337 14.000664 0.000000 9.999337 15.000664 0.000000 9.999337 16.000665 0.000000 9.999337 17.000665 0.000000 9.999337 18.000665 0.000000 9.999321 19.000998 0.000000 10.999338 -0.000998 0.000000 10.999338 0.999335 0.000000 10.999338 1.999335 0.000000 10.999338 2.999335 0.000000 10.999339 3.999336 0.000000 10.999341 4.999336 0.000000 10.999341 5.999336 0.000000 10.999339 6.999336 0.000000 10.999338 7.999337 0.000000 10.999339 9.000000 0.000000 10.999337 10.000001 0.000000 10.999337 11.000663 0.000000 10.999337 12.000664 0.000000 10.999337 13.000664 0.000000 10.999337 14.000664 0.000000 10.999337 15.000664 0.000000 10.999337 16.000665 0.000000 10.999337 17.000665 0.000000 10.999337 18.000665 0.000000 10.999321 19.000998 0.000000 11.999338 -0.000998 0.000000 11.999338 0.999335 0.000000 11.999338 1.999335 0.000000 11.999338 2.999335 0.000000 11.999339 3.999336 0.000000 11.999341 4.999336 0.000000 11.999341 5.999336 0.000000 11.999339 6.999336 0.000000 11.999338 7.999337 0.000000 11.999339 9.000000 0.000000 11.999338 10.000001 0.000000 11.999338 11.000663 0.000000 11.999338 12.000664 0.000000 11.999338 13.000664 0.000000 11.999338 14.000664 0.000000 11.999338 15.000664 0.000000 11.999338 16.000665 0.000000 11.999338 17.000665 0.000000 11.999338 18.000665 0.000000 11.999329 19.000998 0.000000 12.999339 -0.000998 0.000000 12.999339 0.999335 0.000000 12.999339 1.999335 0.000000 12.999339 2.999335 0.000000 12.999339 3.999336 0.000000 12.999341 4.999336 0.000000 12.999341 5.999336 0.000000 12.999340 6.999336 0.000000 12.999339 7.999337 0.000000 12.999340 9.000000 0.000000 12.999338 10.000001 0.000000 12.999338 11.000663 0.000000 12.999338 12.000664 0.000000 12.999338 13.000664 0.000000 12.999338 14.000664 0.000000 12.999338 15.000664 0.000000 12.999338 16.000665 0.000000 12.999338 17.000665 0.000000 12.999338 18.000665 0.000000 12.999331 19.000998 0.000000 13.999339 -0.000998 0.000000 13.999339 0.999335 0.000000 13.999339 1.999335 0.000000 13.999339 2.999335 0.000000 13.999339 3.999336 0.000000 13.999341 4.999336 0.000000 13.999341 5.999336 0.000000 13.999340 6.999336 0.000000 13.999339 7.999337 0.000000 13.999340 9.000000 0.000000 13.999338 10.000001 0.000000 13.999338 11.000663 0.000000 13.999338 12.000664 0.000000 13.999338 13.000664 0.000000 13.999338 14.000664 0.000000 13.999338 15.000664 0.000000 13.999338 16.000665 0.000000 13.999338 17.000665 0.000000 13.999338 18.000665 0.000000 13.999333 19.000998 0.000000 14.999339 -0.000998 0.000000 14.999339 0.999335 0.000000 14.999339 1.999335 0.000000 14.999339 2.999335 0.000000 14.999340 3.999336 0.000000 14.999342 4.999336 0.000000 14.999342 5.999336 0.000000 14.999340 6.999336 0.000000 14.999339 7.999337 0.000000 14.999340 9.000000 0.000000 14.999339 10.000001 0.000000 14.999339 11.000663 0.000000 14.999339 12.000664 0.000000 14.999339 13.000664 0.000000 14.999339 14.000664 0.000000 14.999339 15.000664 0.000000 14.999339 16.000665 0.000000 14.999339 17.000665 0.000000 14.999339 18.000665 0.000000 14.999333 19.000998 0.000000 15.999339 -0.000998 0.000000 15.999339 0.999335 0.000000 15.999339 1.999335 0.000000 15.999339 2.999335 0.000000 15.999340 3.999336 0.000000 15.999342 4.999336 0.000000 15.999342 5.999336 0.000000 15.999341 6.999336 0.000000 15.999339 7.999337 0.000000 15.999341 9.000000 0.000000 15.999340 10.000001 0.000000 15.999340 11.000663 0.000000 15.999340 12.000664 0.000000 15.999340 13.000664 0.000000 15.999340 14.000664 0.000000 15.999339 15.000664 0.000000 15.999339 16.000665 0.000000 15.999339 17.000665 0.000000 15.999339 18.000665 0.000000 15.999333 19.000998 0.000000 16.999340 -0.000998 0.000000 16.999340 0.999335 0.000000 16.999340 1.999335 0.000000 16.999340 2.999335 0.000000 16.999340 3.999336 0.000000 16.999342 4.999336 0.000000 16.999342 5.999336 0.000000 16.999341 6.999336 0.000000 16.999340 7.999337
[...]
      <PointData Vectors="vector">
        <DataArray type="Float32" Name="Velocity" NumberOfComponents="3" format="ascii">
-0.015000 -0.009000 0.000000 -0.015000 -0.006000 0.000000 -0.015000 -0.006000 0.000000 -0.015000 -0.006000 0.000000 -0.021000 -0.006000 0.000000 -0.021000 -0.006000 0.000000 -0.021000 -0.006000 0.000000 -0.021000 -0.006000 0.000000 -0.015000 -0.006000 0.000000 -0.021000 0.000000 0.000000 -0.015000 0.000000 0.000000 -0.015000 0.006000 0.000000 -0.015000 0.006000 0.000000 -0.015000 0.006000 0.000000 -0.015000 0.006000 0.000000 -0.015000 0.006000 0.000000 -0.015000 0.006000 0.000000 -0.015000 0.006000 0.000000 -0.015000 0.006000 0.000000 -0.015000 0.009000 0.000000 -0.006000 -0.009000 0.000000 -0.006000 -0.006000 0.000000 -0.006000 -0.006000 0.000000 -0.006000 -0.006000 0.000000 -0.012000 -0.006000 0.000000 -0.018000 -0.006000 0.000000 -0.018000 -0.006000 0.000000 -0.012000 -0.006000 0.000000 -0.006000 -0.006000 0.000000 -0.012000 0.000000 0.000000 -0.006000 0.000000 0.000000 -0.006000 0.006000 0.000000 -0.006000 0.006000 0.000000 -0.006000 0.006000 0.000000 -0.006000 0.006000 0.000000 -0.006000 0.006000 0.000000 -0.006000 0.006000 0.000000 -0.006000 0.006000 0.000000 -0.006000 0.006000 0.000000 -0.018000 0.009000 0.000000 -0.006000 -0.009000 0.000000 -0.006000 -0.006000 0.000000 -0.006000 -0.006000 0.000000 -0.006000 -0.006000 0.000000 -0.006000 -0.006000 0.000000 -0.012000 -0.006000 0.000000 -0.012000 -0.006000 0.000000 -0.012000 -0.006000 0.000000 -0.006000 -0.006000 0.000000 -0.012000 0.000000 0.000000 -0.006000 0.000000 0.000000 -0.006000 0.006000 0.000000 -0.006000 0.006000 0.000000 -0.006000 0.006000 0.000000 -0.006000 0.006000 0.000000 -0.006000 0.006000 0.000000 -0.006000 0.006000 0.000000 -0.006000 0.006000 0.000000 -0.006000 0.006000 0.000000 -0.018000 0.009000 0.000000 -0.006000 -0.009000 0.000000 -0.006000 -0.006000 0.000000 -0.006000 -0.006000 0.000000 -0.006000 -0.006000 0.000000 -0.006000 -0.006000 0.000000 -0.012000 -0.006000 0.000000 -0.012000 -0.006000 0.000000 -0.012000 -0.006000 0.000000 -0.006000 -0.006000 0.000000 -0.012000 -0.000000 0.000000 -0.006000 -0.000000 0.000000 -0.006000 0.006000 0.000000 -0.006000 0.006000 0.000000 -0.006000 0.006000 0.000000 -0.006000 0.006000 0.000000 -0.006000 0.006000 0.000000 -0.006000 0.006000 0.000000 -0.006000 0.006000 0.000000 -0.006000 0.006000 0.000000 -0.018000 0.009000 0.000000 -0.006000 -0.009000 0.000000 -0.006000 -0.006000 0.000000 -0.006000 -0.006000 0.000000 -0.006000 -0.006000 0.000000 -0.006000 -0.005999 0.000000 -0.012000 -0.006000 0.000000 -0.012000 -0.005999 0.000000 -0.006000 -0.006000 0.000000 -0.006000 -0.006000 0.000000 -0.006000 0.000000 0.000000 -0.006000 0.000000 0.000000 -0.006000 0.006000 0.000000 -0.006000 0.006000 0.000000 -0.006000 0.006000 0.000000 -0.006000 0.006000 0.000000 -0.006000 0.006000 0.000000 -0.006000 0.006000 0.000000 -0.006000 0.006000 0.000000 -0.006000 0.006000 0.000000 -0.018000 0.009000 0.000000 -0.006000 -0.033000 0.000000 -0.006000 -0.018000 0.000000 -0.006000 -0.018000 0.000000 -0.006000 -0.018000 0.000000 -0.006000 -0.012001 0.000000 -0.012001 -0.012001 0.000000 -0.012000 -0.012001 0.000000 -0.006000 -0.012000 0.000000 -0.006000 -0.006000 0.000000 -0.006000 -0.006000 0.000000 -0.006000 -0.006000 0.000000 -0.006000 -0.000000 0.000000 -0.006000 0.006000 0.000000 -0.006000 0.006000 0.000000 -0.006000 0.006000 0.000000 -0.006000 0.006000 0.000000 -0.006000 0.006000 0.000000 -0.006000 0.006000 0.000000 -0.006000 0.006000 0.000000 -0.012000 0.009000 0.000000 -0.006000 -0.015000 0.000000 -0.006000 -0.012000 0.000000 -0.006000 -0.006000 0.000000 -0.006000 -0.006000 0.000000 -0.006000 -0.005999 0.000000 -0.012000 -0.006000 0.000000 -0.012000 -0.005999 0.000000 -0.006000 -0.000000 0.000000 -0.006000 0.000000 0.000000 -0.006000 0.000000 0.000000 -0.006000 0.000000 0.000000 -0.006000 0.006000 0.000000 -0.006000 0.006000 0.000000 -0.006000 0.006000 0.000000 -0.006000 0.006000 0.000000 -0.006000 0.006000 0.000000 -0.006000 0.006000 0.000000 -0.006000 0.006000 0.000000 -0.006000 0.006000 0.000000 -0.012000 0.009000 0.000000 -0.006000 -0.009000 0.000000 -0.006000 -0.006000 0.000000 -0.006000 -0.006000 0.000000 -0.006000 -0.006000 0.000000 -0.006000 -0.006000 0.000000 -0.006000 -0.006000 0.000000 -0.006000 -0.006000 0.000000 -0.006000 -0.006000 0.000000 -0.006000 -0.006000 0.000000 -0.006000 -0.000000 0.000000 -0.006000 0.000000 0.000000 -0.006000 0.006000 0.000000 -0.006000 0.006000 0.000000 -0.006000 0.006000 0.000000 -0.006000 0.006000 0.000000 -0.006000 0.006000 0.000000 -0.006000 0.006000 0.000000 -0.006000 0.006000 0.000000 -0.006000 0.006000 0.000000 -0.012000 0.009000 0.000000 -0.006000 -0.009000 0.000000 -0.006000 -0.006000 0.000000 -0.006000 -0.006000 0.000000 -0.006000 -0.006000 0.000000 -0.006000 -0.006000 0.000000 -0.006000 -0.006000 0.000000 -0.006000 -0.006000 0.000000 -0.006000 -0.006000 0.000000 -0.006000 -0.006000 0.000000 -0.006000 0.000000 0.000000 -0.006000 0.000000 0.000000 -0.006000 0.006000 0.000000 -0.006000 0.006000 0.000000 -0.006000 0.006000 0.000000 -0.006000 0.006000 0.000000 -0.006000 0.006000 0.000000 -0.006000 0.006000 0.000000 -0.006000 0.006000 0.000000 -0.006000 0.006000 0.000000 -0.012000 0.009000 0.000000 -0.006000 -0.009000 0.000000 -0.006000 -0.006000 0.000000 -0.006000 -0.006000 0.000000 -0.006000 -0.006000 0.000000 -0.006000 -0.006000 0.000000 -0.006000 -0.006000 0.000000 -0.006000 -0.006000 0.000000 -0.006000 -0.006000 0.000000 -0.006000 -0.006000 0.000000 -0.006000 0.000000 0.000000 -0.006000 0.000000 0.000000 -0.006000 0.006000 0.000000 -0.006000 0.006000 0.000000 -0.006000 0.006000 0.000000 -0.006000 0.006000 0.000000 -0.006000 0.006000 0.000000 -0.006000 0.006000 0.000000 -0.006000 0.006000 0.000000 -0.006000 0.006000 0.000000 -0.012000 0.009000 0.000000 -0.006000 -0.009000 0.000000 -0.006000 -0.006000 0.000000 -0.006000 -0.006000 0.000000 -0.006000 -0.006000 0.000000 -0.006000 -0.006000 0.000000 -0.006000 -0.006000 0.000000 -0.006000 -0.006000 0.000000 -0.006000 -0.006000 0.000000 -0.006000 -0.006000 0.000000 -0.006000 -0.000000 0.000000 -0.006000 0.000000 0.000000 -0.006000 0.006000 0.000000 -0.006000 0.006000 0.000000 -0.006000 0.006000 0.000000 -0.006000 0.006000 0.000000 -0.006000 0.006000 0.000000 -0.006000 0.006000 0.000000 -0.006000 0.006000 0.000000 -0.006000 0.006000 0.000000 -0.012000 0.009000 0.000000 -0.006000 -0.009000 0.000000 -0.006000 -0.006000 0.000000 -0.006000 -0.006000 0.000000 -0.006000 -0.006000 0.000000 -0.006000 -0.006000 0.000000 -0.006000 -0.006000 0.000000 -0.006000 -0.006000 0.000000 -0.006000 -0.006000 0.000000 -0.006000 -0.006000 0.000000 -0.006000 0.000000 0.000000 -0.006000 0.000000 0.000000 -0.006000 0.006000 0.000000 -0.006000 0.006000 0.000000 -0.006000 0.006000 0.000000 -0.006000 0.006000 0.000000 -0.006000 0.006000 0.000000 -0.006000 0.006000 0.000000 -0.006000 0.006000 0.000000 -0.006000 0.006000 0.000000 -0.006000 0.009000 0.000000 -0.006000 -0.009000 0.000000 -0.006000 -0.006000 0.000000 -0.006000 -0.006000 0.000000 -0.006000 -0.006000 0.000000 -0.006000 -0.006000 0.000000 -0.006000 -0.006000 0.000000 -0.006000 -0.006000 0.000000 -0.006000 -0.006000 0.000000 -0.006000 -0.006000 0.000000 -0.006000 0.000000 0.000000 -0.006000 0.000000 0.000000 -0.006000 0.006000 0.000000 -0.006000 0.006000 0.000000 -0.006000 0.006000 0.000000 -0.006000 0.006000 0.000000 -0.006000 0.006000 0.000000 -0.006000 0.006000 0.000000 -0.006000 0.006000 0.000000 -0.006000 0.006000 0.000000 -0.018000 0.009000 0.000000 -0.006000 -0.009000 0.000000 -0.006000 -0.006000 0.000000 -0.006000 -0.006000 0.000000 -0.006000 -0.006000 0.000000 -0.006000 -0.006000 0.000000 -0.006000 -0.006000 0.000000 -0.006000 -0.006000 0.000000 -0.006000 -0.006000 0.000000 -0.006000 -0.006000 0.000000 -0.006000 0.000000 0.000000 -0.006000 0.000000 0.000000 -0.006000 0.006000 0.000000 -0.006000 0.006000 0.000000 -0.006000 0.006000 0.000000 -0.006000 0.006000 0.000000 -0.006000 0.006000 0.000000 -0.006000 0.006000 0.000000 -0.006000 0.006000 0.000000 -0.006000 0.006000 0.000000 -0.012000 0.009000 0.000000 -0.006000 -0.009000 0.000000 -0.006000 -0.006000 0.000000 -0.006000 -0.006000 0.000000 -0.006000 -0.006000 0.000000 -0.006000 -0.006000 0.000000 -0.006000 -0.006000 0.000000 -0.006000 -0.006000 0.000000 -0.006000 -0.006000 0.000000 -0.006000 -0.006000 0.000000 -0.006000 0.000000 0.000000 -0.006000 0.000000 0.000000 -0.006000 0.006000 0.000000 -0.006000 0.006000 0.000000 -0.006000 0.006000 0.000000 -0.006000 0.006000 0.000000 -0.006000 0.006000 0.000000 -0.006000 0.006000 0.000000 -0.006000 0.006000 0.000000 -0.006000 0.006000 0.000000 -0.012000 0.009000 0.000000 -0.006000 -0.009000 0.000000 -0.006000 -0.006000 0.000000 -0.006000 -0.006000 0.000000 -0.006000 -0.006000 0.000000 -0.006000 -0.006000 0.000000 -0.006000 -0.006000 0.000000 -0.006000 -0.006000 0.000000 -0.006000 -0.006000 0.000000 -0.006000 -0.006000 0.000000 -0.006000 0.000000 0.000000 -0.006000 0.000000 0.000000 -0.006000 0.006000 0.000000 -0.006000 0.006000 0.000000 -0.006000 0.006000 0.000000 -0.006000 0.006000 0.000000 -0.006000 0.006000 0.000000 -0.006000 0.006000 0.000000 -0.006000 0.006000 0.000000 -0.006000 0.006000 0.000000 -0.006000 0.009000 0.000000 -0.006000 -0.009000 0.000000 -0.006000 -0.006000 0.000000 -0.006000 -0.006000 0.000000 -0.006000 -0.006000 0.000000 -0.006000 -0.006000 0.000000 -0.006000 -0.006000 0.000000 -0.006000 -0.006000 0.000000 -0.006000 -0.006000 0.000000 -0.006000 -0.006000 0.000000 -0.006000 0.000000 0.000000 -0.006000 0.000000 0.000000 -0.006000 0.006000 0.000000 -0.006000 0.006000 0.000000 -0.006000 0.006000 0.000000 -0.006000 0.006000 0.000000 -0.006000 0.006000 0.000000 -0.006000 0.006000 0.000000 -0.006000 0.006000 0.000000 -0.006000 0.006000 0.000000 -0.006000 0.009000 0.000000 -0.006000 -0.009000 0.000000 -0.006000 -0.006000 0.000000 -0.006000 -0.006000 0.000000 -0.006000 -0.006000 0.000000 -0.006000 -0.006000 0.000000 -0.006000 -0.006000 0.000000 -0.006000 -0.006000 0.000000 -0.006000 -0.006000 0.000000 -0.006000 -0.006000 0.000000 -0.006000 0.000000 0.000000 -0.006000 0.000000 0.000000 -0.006000 0.006000 0.000000 -0.006000 0.006000 0.000000 -0.006000 0.006000 0.000000 -0.006000 0.006000 0.000000 -0.006000 0.006000 0.000000 -0.006000 0.006000 0.000000 -0.006000 0.006000 0.000000 -0.006000 0.006000 0.000000 -0.006000 0.009000 0.000000 -0.006000 -0.009000 0.000000 -0.006000 -0.006000 0.000000 -0.006000 -0.006000 0.000000 -0.006000 -0.006000 0.000000 -0.006000 -0.006000 0.000000 -0.006000 -0.006000 0.000000 -0.006000 -0.006000 0.000000 -0.006000 -0.006000 0.000000 -0.006000 -0.006000 0.000000 -0.006000 0.000000 0.000000 -0.006000 0.000000 0.000000 -0.006000 0.006000 0.000000 -0.006000 0.006000 0.000000 -0.006000 0.006000 0.000000 -0.006000 0.006000 0.000000 -0.006000 0.006000 0.000000 -0.006000 0.006000 0.000000 -0.006000 0.006000 0.000000 -0.006000 0.006000 0.000000 -0.006000 0.009000 0.000000 -0.006000 -0.009000 0.000000 -0.006000 -0.006000 0.000000 -0.006000 -0.006000 0.000000 -0.006000 -0.006000 0.000000 -0.006000 -0.006000 0.000000 -0.006000 -0.006000 0.000000 -0.006000 -0.006000 0.000000 -0.006000 -0.006000 0.000000 -0.006000 -0.006000 0.000000 -0.006000 0.000000 0.000000 -0.006000 0.000000 0.000000 -0.006000 0.006000 0.000000 -0.006000 0.006000 0.000000 -0.006000 0.006000 0.000000 -0.006000 0.006000 0.000000 -0.006000 0.006000 0.000000 -0.006000 0.006000 0.000000 -0.006000 0.006000 0.000000 -0.006000 0.006000 0.000000 -0.006000 0.009000 0.000000 -0.006000 -0.009000 0.000000 -0.006000 -0.006000 0.000000 -0.006000 -0.006000 0.000000 -0.006000 -0.006000 0.000000 -0.006000 -0.006000 0.000000 -0.006000 -0.006000 0.000000 -0.006000 -0.006000 0.000000 -0.006000 -0.006000 0.000000 -0.006000 -0.006000 0.000000 -0.006000 0.000000 0.000000 -0.006000 0.000000 0.000000 -0.006000 0.006000 0.000000 -0.006000 0.006000 0.000000 -0.006000 0.006000 0.000000 -0.006000 0.006000 0.000000 -0.006000 0.006000 0.000000 -0.006000 0.006000 0.000000 -0.006000 0.006000 0.000000 -0.006000 0.006000 0.000000 -0.006000 0.009000 0.000000 -0.006000 -0.009000 0.000000 -0.006000 -0.006000 0.000000 -0.006000 -0.006000 0.000000 -0.006000 -0.006000 0.000000 -0.006000 -0.006000 0.000000 -0.006000 -0.006000 0.000000 -0.006000 -0.006000 0.000000 -0.006000 -0.006000 0.000000 -0.006000 -0.006000 0.000000 -0.006000 0.000000 0.000000 -0.006000 0.000000 0.000000 -0.006000 0.006000 0.000000 -0.006000 0.006000 0.000000 -0.006000 0.006000 0.000000 -0.006000 0.006000 0.000000 -0.006000 0.006000 0.000000 -0.006000 0.006000 0.000000 -0.006000 0.006000 0.000000 -0.006000 0.006000 0.000000 -0.000000 0.009000 0.000000 -0.006000 -0.009000 0.000000 -0.006000 -0.006000 0.000000 -0.006000 -0.006000 0.000000 -0.006000 -0.006000 0.000000 -0.006000 -0.006000 0.000000 -0.006000 -0.006000 0.000000 -0.006000 -0.006000 0.000000 -0.006000 -0.006000 0.000000 -0.006000 -0.006000 0.000000 -0.006000 0.000000 0.000000 -0.006000 0.000000 0.000000 -0.006000 0.006000 0.000000 -0.006000 0.006000 0.000000 -0.006000 0.006000 0.000000 -0.006000 0.006000 0.000000 -0.006000 0.006000 0.000000 -0.006000 0.006000 0.000000 -0.006000 0.006000 0.000000 -0.006000 0.006000 0.000000 -0.006000 0.009000 0.000000 -0.006000 -0.009000 0.000000 -0.006000 -0.006000 0.000000 -0.006000 -0.006000 0.000000 -0.006000 -0.006000 0.000000 -0.006000 -0.006000 0.000000 -0.006000 -0.006000 0.000000 -0.006000 -0.006000 0.000000 -0.006000 -0.006000 0.000000 -0.006000 -0.006000 0.000000 -0.006000 0.000000 0.000000 -0.006000 0.000000 0.000000 -0.006000 0.006000 0.000000 -0.006000 0.006000 0.000000 -0.006000 0.006000 0.000000 -0.006000 0.006000 0.000000 -0.006000 0.006000 0.000000 -0.006000 0.006000 0.000000 -0.006000 0.006000 0.000000 -0.006000 0.006000 0.000000 -0.006000 0.009000 0.000000 -0.006000 -0.009000 0.000000 -0.006000 -0.006000 0.000000 -0.006000 -0.006000 0.000000 -0.006000 -0.006000 0.000000 -0.006000 -0.006000 0.000000 -0.006000 -0.006000 0.000000 -0.006000 -0.006000 0.000000 -0.006000 -0.006000 0.000000 -0.006000 -0.006000 0.000000 -0.006000 0.000000 0.000000 -0.006000 0.000000 0.000000 -0.006000 0.006000 0.000000 -0.006000 0.006000 0.000000 -0.006000 0.006000 0.000000 -0.006000 0.006000 0.000000 -0.006000 0.006000 0.000000 -0.006000 0.006000 0.000000 -0.006000 0.006000 0.000000 -0.006000 0.006000 0.000000 -0.006000 0.009000 0.000000 -0.006000 -0.009000 0.000000 -0.006000 -0.006000 0.000000 -0.006000 -0.006000 0.000000 -0.006000 -0.006000 0.000000 -0.006000 -0.006000 0.000000 -0.006000 -0.006000 0.000000 -0.006000 -0.006000 0.000000 -0.006000 -0.006000 0.000000 -0.006000 -0.006000 0.000000 -0.006000 0.000000 0.000000 -0.006000 0.000000 0.000000 -0.006000 0.006000 0.000000 -0.006000 0.006000 0.000000 -0.006000 0.006000 0.000000 -0.006000 0.006000 0.000000 -0.006000 0.006000 0.000000 -0.006000 0.006000 0.000000 -0.006000 0.006000 0.000000 -0.006000 0.006000 0.000000 -0.006000 0.009000 0.000000 -0.006000 -0.009000 0.000000 -0.006000 -0.006000 0.000000 -0.006000 -0.006000 0.000000 -0.006000 -0.006000 0.000000 -0.006000 -0.006000 0.000000 -0.006000 -0.006000 0.000000 -0.006000 -0.006000 0.000000 -0.006000 -0.006000 0.000000 -0.006000 -0.006000 0.000000 -0.006000 0.000000 0.000000 -0.006000 0.000000 0.000000 -0.006000 0.006000 0.000000 -0.006000 0.006000 0.000000 -0.006000 0.006000 0.000000 -0.006000 0.006000 0.000000 -0.006000 0.006000 0.000000 -0.006000 0.006000 0.000000 -0.006000 0.006000 0.000000 -0.006000 0.006000 0.000000 -0.006000 0.009000 0.000000 -0.006000 -0.009000 0.000000 -0.006000 -0.006000 0.000000 -0.006000 -0.006000 0.000000 -0.006000 -0.006000 0.000000 -0.006000 -0.006000 0.000000 -0.006000 -0.006000 0.000000 -0.006000 -0.006000 0.000000 -0.006000 -0.006000 0.000000 -0.006000 -0.006000 0.000000 -0.006000 0.000000 0.000000 -0.006000 0.000000 0.000000 -0.006000 0.006000 0.000000 -0.006000 0.006000 0.000000 -0.006000 0.006000 0.000000 -0.006000 0.006000 0.000000 -0.006000 0.006000 0.000000 -0.006000 0.006000 0.000000 -0.006000 0.006000 0.000000 -0.006000 0.006000 0.000000 -0.000000 0.009000 0.000000 -0.006000 -0.009000 0.000000 -0.006000 -0.006000 0.000000 -0.006000 -0.006000 0.000000 -0.006000 -0.006000 0.000000 -0.006000 -0.006000 0.000000 -0.006000 -0.006000 0.000000 -0.006000 -0.006000 0.000000 -0.006000 -0.006000 0.000000 -0.006000 -0.006000 0.000000 -0.006000 0.000000 0.000000 -0.006000 0.000000 0.000000 -0.006000 0.006000 0.000000 -0.006000 0.006000 0.000000 -0.006000 0.006000 0.000000 -0.006000 0.006000 0.000000 -0.006000 0.006000 0.000000 -0.006000 0.006000 0.000000 -0.006000 0.006000 0.000000 -0.006000 0.006000 0.000000 -0.000000 0.009000 0.000000 -0.006000 -0.009000 0.000000 -0.006000 -0.006000 0.000000 -0.006000 -0.006000 0.000000 -0.006000 -0.006000 0.000000 -0.006000 -0.006000 0.000000 -0.006000 -0.006000 0.000000 -0.006000 -0.006000 0.000000 -0.006000 -0.006000 0.000000 -0.006000 -0.006000 0.000000 -0.006000 0.000000 0.000000 -0.006000 0.000000 0.000000 -0.006000 0.006000 0.000000 -0.006000 0.006000 0.000000 -0.006000 0.006000 0.000000 -0.006000 0.006000 0.000000 -0.006000 0.006000 0.000000 -0.006000 0.006000 0.000000 -0.006000 0.006000 0.000000 -0.006000 0.006000 0.000000 0.006000 0.009136 0.000000 -0.006000 -0.009000 0.000000 -0.006000 -0.006000 0.000000 -0.006000 -0.006000 0.000000 -0.006000 -0.006000 0.000000 -0.006000 -0.006000 0.000000 -0.006000 -0.006000 0.000000 -0.006000 -0.006000 0.000000 -0.006000 -0.006000 0.000000 -0.006000 -0.006000 0.000000 -0.006000 0.000000 0.000000 -0.006000 0.000000 0.000000 -0.006000 -0.126000 0.000000 -0.006000 -0.141000 0.000000 -0.006000 -0.129000 0.000000 -0.006000 -0.129000 0.000000 -0.006000 -0.138000 0.000000 -0.006000 -0.135000 0.000000 -0.006000 -0.129002 0.000000 -0.006002 -0.127214 0.000000 0.000505 -0.339591 0.000000 -0.006000 -0.009000 0.000000 -0.006000 -0.006000 0.000000 -0.006000 -0.006000 0.000000 -0.006000 -0.006000 0.000000 -0.006000 -0.006000 0.000000 -0.006000 -0.006000 0.000000 -0.006000 -0.006000 0.000000 -0.006000 -0.006000 0.000000 -0.006000 -0.006000 0.000000 -0.006000 0.000000 0.000000 -0.006000 0.000000 0.000000 -0.006000 -0.126000 0.000000 -0.006000 -0.120000 0.000000 -0.006000 -0.129000 0.000000 -0.006000 -0.132000 0.000000 -0.006000 -0.138000 0.000000 -0.006000 -0.126000 0.000000 -0.006000 -0.126002 0.000000 -0.006005 -0.127151 0.000000 0.000025 -0.337008 0.000000 -0.006000 -0.009000 0.000000 -0.006000 -0.006000 0.000000 -0.006000 -0.006000 0.000000 -0.006000 -0.006000 0.000000 -0.006000 -0.006000 0.000000 -0.006000 -0.006000 0.000000 -0.006000 -0.006000 0.000000 -0.006000 -0.006000 0.000000 -0.006000 -0.006000 0.000000 -0.006000 0.000000 0.000000 -0.006000 0.000000 0.000000 -0.006000 -0.126000 0.000000 -0.006000 -0.120000 0.000000 -0.006000 -0.135000 0.000000 -0.006000 -0.132000 0.000000 -0.006000 -0.135000 0.000000 -0.006000 -0.129000 0.000000 -0.006000 -0.126002 0.000000 -0.006006 -0.127164 0.000000 0.000027 -0.336964 0.000000 -0.006000 -0.009000 0.000000 -0.006000 -0.006000 0.000000 -0.006000 -0.006000 0.000000 -0.006000 -0.006000 0.000000 -0.006000 -0.006000 0.000000 0.000000 -0.006000 0.000000 0.000000 -0.006000 0.000000 -0.006000 -0.006000 0.000000 -0.006000 -0.006000 0.000000 -0.006000 0.000000 0.000000 -0.006000 0.000000 0.000000 -0.006000 -0.126000 0.000000 -0.006000 -0.120000 0.000000 -0.006000 -0.129000 0.000000 -0.006000 -0.132000 0.000000 -0.006000 -0.138000 0.000000 -0.006000 -0.126000 0.000000 -0.006000 -0.126002 0.000000 -0.006006 -0.127151 0.000000 0.000028 -0.337014 0.000000 -0.006000 -0.009000 0.000000 -0.006000 -0.006000 0.000000 -0.006000 -0.006000 0.000000 -0.006000 -0.006000 0.000000 -0.006000 -0.006000 0.000000 0.000000 -0.006000 0.000000 0.000000 -0.006000 0.000000 -0.006000 -0.006000 0.000000 -0.006000 -0.006000 0.000000 -0.006000 0.000000 0.000000 -0.006000 0.000000 0.000000 -0.006000 -0.126000 0.000000 -0.006000 -0.120000 0.000000 -0.006000 -0.129000 0.000000 -0.006000 -0.132000 0.000000 -0.006000 -0.138000 0.000000 -0.006000 -0.126000 0.000000 -0.006