<VTKFile type="UnstructuredGrid" version="0.1" byte_order="LittleEndian">
  <UnstructuredGrid>
    <Piece NumberOfPoints="2000" NumberOfCells="0">
      <Points>
        <DataArray name="Position" type="Float32" NumberOfComponents="3" format="ascii">
-0.002356 -0.001417 0.000000 -0.002356 0.999056 0.000000 -0.002356 1.999056 0.000000 -0.002356 2.999056 0.000000 -0.003133 3.999057 0.000000 -0.003267 4.999057 0.000000 -0.003253 5.999057 0.000000 -0.003288 6.999057 0.000000 -0.002347 7.999058 0.000000 -0.003287 9.000000 0.000000 -0.002343 10.000001 0.000000 -0.002342 11.000942 0.000000 -0.002344 12.000943 0.000000 -0.002344 13.000943 0.000000 -0.002344 14.000943 0.000000 -0.002338 15.000943 0.000000 -0.002338 16.000944 0.000000 -0.002338 17.000944 0.000000 -0.002338 18.000944 0.000000 -0.002338 19.001417 0.000000 0.999053 -0.001417 0.000000 0.999053 0.999056 0.000000 0.998911 1.999056 0.000000 0.998647 2.999056 0.000000 0.998032 3.999057 0.000000 0.997211 4.999057 0.000000 0.997281 5.999057 0.000000 0.998117 6.999057 0.000000 0.998612 7.999058 0.000000 0.998118 9.000000 0.000000 0.998578 10.000001 0.000000 0.998834 11.000942 0.000000 0.999047 12.000943 0.000000 0.999047 13.000943 0.000000 0.999047 14.000943 0.000000 0.999044 15.000943 0.000000 0.999044 16.000944 0.000000 0.999044 17.000944 0.000000 0.998639 18.000944 0.000000 0.998431 19.001417 0.000000 1.999056 -0.001417 0.000000 1.999056 0.999056 0.000000 1.999052 1.999056 0.000000 1.998651 2.999056 0.000000 1.998633 3.999057 0.000000 1.998109 4.999057 0.000000 1.998102 5.999057 0.000000 1.998121 6.999057 0.000000 1.998613 7.999058 0.000000 1.998121 9.000000 0.000000 1.998603 10.000001 0.000000 1.998864 11.000942 0.000000 1.999056 12.000943 0.000000 1.999056 13.000943 0.000000 1.999056 14.000943 0.000000 1.999056 15.000943 0.000000 1.999056 16.000944 0.000000 1.999056 17.000944 0.000000 1.998649 18.000944 0.000000 1.998445 19.001417 0.000000 2.999056 -0.001417 0.000000 2.999056 0.999056 0.000000 2.999055 1.999056 0.000000 2.998657 2.999056 0.000000 2.998668 3.999056 0.000000 2.998117 4.999057 0.000000 2.998119 5.999057 0.000000 2.998125 6.999057 0.000000 2.998615 7.999058 0.000000 2.998125 9.000000 0.000000 2.998607 10.000001 0.000000 2.998886 11.000942 0.000000 2.999056 12.000943 0.000000 2.999056 13.000943 0.000000 2.999056 14.000943 0.000000 2.999056 15.000943 0.000000 2.999056 16.000944 0.000000 2.999056 17.000944 0.000000 2.998666 18.000944 0.000000 2.998456 19.001417 0.000000 3.999056 -0.001417 0.000000 3.999056 0.998919 0.000000 3.999055 1.999022 0.000000 3.998725 2.999056 0.000000 3.998685 3.999057 0.000000 3.998119 4.999058 0.000000 3.998124 5.999058 0.000000 3.998628 6.999092 0.000000 3.998615 7.999194 0.000000 3.998879 9.000000 0.000000 3.998626 10.000002 0.000000 3.998909 11.000896 0.000000 3.999056 12.000943 0.000000 3.999056 13.000943 0.000000 3.999056 14.000943 0.000000 3.999056 15.000944 0.000000 3.999056 16.000944 0.000000 3.999056 17.000945 0.000000 3.998674 18.000989 0.000000 3.998467 19.001417 0.000000 4.999057 -0.005098 0.000000 4.999057 0.997157 0.000000 4.999055 1.997178 0.000000 4.999050 2.997182 0.000000 4.999051 3.998102 0.000000 4.998120 4.998115 0.000000 4.998155 5.998124 0.000000 4.998656 6.998135 0.000000 4.998652 7.998858 0.000000 4.998899 8.999056 0.000000 4.998628 9.999252 0.000000 4.998909 10.999999 0.000000 4.999057 12.000943 0.000000 4.999057 13.000943 0.000000 4.999057 14.000943 0.000000 4.999057 15.000943 0.000000 4.999057 16.000944 0.000000 4.999057 17.000944 0.000000 4.998694 18.000944 0.000000 4.998492 19.001417 0.000000 5.999058 -0.002349 0.000000 5.999058 0.998152 0.000000 5.999058 1.998917 0.000000 5.999058 2.999050 0.000000 5.999058 3.999057 0.000000 5.998126 4.999057 0.000000 5.998160 5.999196 0.000000 5.999048 6.999866 0.000000 5.998833 7.999963 0.000000 5.999048 9.000002 0.000000 5.998644 10.000137 0.000000 5.998943 11.000942 0.000000 5.999057 12.000943 0.000000 5.999057 13.000943 0.000000 5.999057 14.000943 0.000000 5.999057 15.000943 0.000000 5.999057 16.000944 0.000000 5.999057 17.000944 0.000000 5.998695 18.000944 0.000000 5.998750 19.001417 0.000000 6.999058 -0.001417 0.000000 6.999058 0.998894 0.000000 6.999058 1.998984 0.000000 6.999058 2.999056 0.000000 6.999058 3.999057 0.000000 6.999048 4.999057 0.000000 6.998929 5.999057 0.000000 6.999053 6.999126 0.000000 6.998838 7.999221 0.000000 6.999053 8.999999 0.000000 6.998816 10.000001 0.000000 6.998954 11.000942 0.000000 6.999057 12.000943 0.000000 6.999057 13.000943 0.000000 6.999057 14.000943 0.000000 6.999057 15.000943 0.000000 6.999057 16.000944 0.000000 6.999057 17.000944 0.000000 6.998695 18.000944 0.000000 6.998752 19.001417 0.000000 7.999058 -0.001417 0.000000 7.999058 0.999056 0.000000 7.999058 1.999056 0.000000 7.999058 2.999056 0.000000 7.999059 3.999056 0.000000 7.999054 4.999057 0.000000 7.999047 5.999057 0.000000 7.999054 6.999057 0.000000 7.998841 7.999058 0.000000 7.999054 8.999999 0.000000 7.998824 10.000001 0.000000 7.998958 11.000942 0.000000 7.999057 12.000943 0.000000 7.999057 13.000943 0.000000 7.999057 14.000943 0.000000 7.999057 15.000943 0.000000 7.999057 16.000944 0.000000 7.999057 17.000944 0.000000 7.998699 18.000944 0.000000 7.998755 19.001417 0.000000 8.999058 -0.001417 0.000000 8.999058 0.999056 0.000000 8.999058 1.999056 0.000000 8.999058 2.999056 0.000000 8.999059 3.999057 0.000000 8.999055 4.999057 0.000000 8.999054 5.999057 0.000000 8.999054 6.999057 0.000000 8.998845 7.999058 0.000000 8.999055 9.000000 0.000000 8.998829 10.000001 0.000000 8.998960 11.000942 0.000000 8.999058 12.000943 0.000000 8.999058 13.000943 0.000000 8.999058 14.000943 0.000000 8.999058 15.000943 0.000000 8.999058 16.000944 0.000000 8.999058 17.000944 0.000000 8.998729 18.000944 0.000000 8.998757 19.001417 0.000000 9.999059 -0.001417 0.000000 9.999059 0.999056 0.000000 9.999059 1.999056 0.000000 9.999059 2.999056 0.000000 9.999059 3.999057 0.000000 9.999057 4.999057 0.000000 9.999056 5.999057 0.000000 9.999057 6.999057 0.000000 9.999045 7.999058 0.000000 9.999057 9.000000 0.000000 9.998831 10.000001 0.000000 9.998969 11.000942 0.000000 9.999058 12.000943 0.000000 9.999058 13.000943 0.000000 9.999058 14.000943 0.000000 9.999058 15.000943 0.000000 9.999058 16.000944 0.000000 9.999058 17.000944 0.000000 9.998852 18.000944 0.000000 9.998761 19.001417 0.000000 10.999059 -0.001417 0.000000 10.999059 0.999056 0.000000 10.999059 1.999056 0.000000 10.999059 2.999056 0.000000 10.999060 3.999057 0.000000 10.999062 4.999057 0.000000 10.999062 5.999057 0.000000 10.999060 6.999057 0.000000 10.999060 7.999058 0.000000 10.999060 9.000000 0.000000 10.998831 10.000001 0.000000 10.998969 11.000942 0.000000 10.999058 12.000943 0.000000 10.999058 13.000943 0.000000 10.999058 14.000943 0.000000 10.999058 15.000943 0.000000 10.999058 16.000944 0.000000 10.999058 17.000944 0.000000 10.998853 18.000944 0.000000 10.998763 19.001417 0.000000 11.999059 -0.001417 0.000000 11.999059 0.999056 0.000000 11.999059 1.999056 0.000000 11.999059 2.999056 0.000000 11.999060 3.999057 0.000000 11.999062 4.999057 0.000000 11.999062 5.999057 0.000000 11.999060 6.999057 0.000000 11.999060 7.999058 0.000000 11.999060 9.000000 0.000000 11.998833 10.000001 0.000000 11.998971 11.000942 0.000000 11.999059 12.000943 0.000000 11.999059 13.000943 0.000000 11.999059 14.000943 0.000000 11.999059 15.000943 0.000000 11.999059 16.000944 0.000000 11.999059 17.000944 0.000000 11.998860 18.000944 0.000000 11.998773 19.001417 0.000000 12.999060 -0.001417 0.000000 12.999060 0.999056 0.000000 12.999060 1.999056 0.000000 12.999060 2.999056 0.000000 12.999060 3.999057 0.000000 12.999062 4.999057 0.000000 12.999062 5.999057 0.000000 12.999061 6.999057 0.000000 12.999061 7.999058 0.000000 12.999061 9.000000 0.000000 12.999043 10.000001 0.000000 12.999041 11.000942 0.000000 12.999059 12.000943 0.000000 12.999059 13.000943 0.000000 12.999059 14.000943 0.000000 12.999059 15.000943 0.000000 12.999059 16.000944 0.000000 12.999059 17.000944 0.000000 12.998862 18.000944 0.000000 12.998775 19.001417 0.000000 13.999060 -0.001417 0.000000 13.999060 0.999056 0.000000 13.999060 1.999056 0.000000 13.999060 2.999056 0.000000 13.999060 3.999057 0.000000 13.999062 4.999057 0.000000 13.999062 5.999057 0.000000 13.999061 6.999057 0.000000 13.999061 7.999058 0.000000 13.999061 9.000000 0.000000 13.999053 10.000001 0.000000 13.999051 11.000942 0.000000 13.999059 12.000943 0.000000 13.999059 13.000943 0.000000 13.999059 14.000943 0.000000 13.999059 15.000943 0.000000 13.999059 16.000944 0.000000 13.999059 17.000944 0.000000 13.998864 18.000944 0.000000 13.999042 19.001417 0.000000 14.999060 -0.001417 0.000000 14.999060 0.999056 0.000000 14.999060 1.999056 0.000000 14.999060 2.999056 0.000000 14.999061 3.999057 0.000000 14.999063 4.999057 0.000000 14.999063 5.999057 0.000000 14.999061 6.999057 0.000000 14.999061 7.999058 0.000000 14.999061 9.000000 0.000000 14.999053 10.000001 0.000000 14.999053 11.000942 0.000000 14.999060 12.000943 0.000000 14.999060 13.000943 0.000000 14.999060 14.000943 0.000000 14.999060 15.000943 0.000000 14.999060 16.000944 0.000000 14.999060 17.000944 0.000000 14.998866 18.000944 0.000000 14.999054 19.001417 0.000000 15.999060 -0.001417 0.000000 15.999060 0.999056 0.000000 15.999060 1.999056 0.000000 15.999060 2.999056 0.000000 15.999061 3.999057 0.000000 15.999063 4.999057 0.000000 15.999063 5.999057 0.000000 15.999062 6.999057 0.000000 15.999062 7.999058 0.000000 15.999062 9.000000 0.000000 15.999056 10.000001 0.000000 15.999056 11.000942 0.000000 15.999061 12.000943 0.000000 15.999061 13.000943 0.000000 15.999061 14.000943 0.000000 15.999060 15.000943 0.000000 15.999060 16.000944 0.000000 15.999060 17.000944 0.000000 15.998891 18.000944 0.000000 15.999054 19.001417 0.000000 16.999061 -0.001417 0.000000 16.999061 0.999056 0.000000 16.999061 1.999056 0.000000 16.999061 2.999056 0.000000 16.999061 3.999057 0.000000 16.999063 4.999057 0.000000 16.999063 5.999057 0.000000 16.999062 6.999057 0.000000 16.999062 7.999058
[...]
      <PointData Vectors="vector">
        <DataArray type="Float32" Name="Velocity" NumberOfComponents="3" format="ascii">
-0.015000 -0.009000 0.000000 -0.015000 -0.006000 0.000000 -0.015000 -0.006000 0.000000 -0.015000 -0.006000 0.000000 -0.021000 -0.006000 0.000000 -0.021000 -0.006000 0.000000 -0.021000 -0.006000 0.000000 -0.021000 -0.006000 0.000000 -0.015000 -0.006000 0.000000 -0.021000 0.000000 0.000000 -0.015000 0.000000 0.000000 -0.015000 0.006000 0.000000 -0.015000 0.006000 0.000000 -0.015000 0.006000 0.000000 -0.015000 0.006000 0.000000 -0.015000 0.006000 0.000000 -0.015000 0.006000 0.000000 -0.015000 0.006000 0.000000 -0.015000 0.006000 0.000000 -0.015000 0.009000 0.000000 -0.006000 -0.009000 0.000000 -0.006000 -0.006000 0.000000 -0.018000 -0.006000 0.000000 -0.018000 -0.006000 0.000000 -0.012000 -0.006000 0.000000 -0.018000 -0.006000 0.000000 -0.018000 -0.006000 0.000000 -0.012000 -0.006000 0.000000 -0.018000 -0.006000 0.000000 -0.012000 0.000000 0.000000 -0.018000 0.000000 0.000000 -0.018000 0.006000 0.000000 -0.006000 0.006000 0.000000 -0.006000 0.006000 0.000000 -0.006000 0.006000 0.000000 -0.006000 0.006000 0.000000 -0.006000 0.006000 0.000000 -0.006000 0.006000 0.000000 -0.018000 0.006000 0.000000 -0.018000 0.009000 0.000000 -0.006000 -0.009000 0.000000 -0.006000 -0.006000 0.000000 -0.006000 -0.006000 0.000000 -0.018000 -0.006000 0.000000 -0.018000 -0.006000 0.000000 -0.012000 -0.006000 0.000000 -0.012000 -0.006000 0.000000 -0.012000 -0.006000 0.000000 -0.018000 -0.006000 0.000000 -0.012000 0.000000 0.000000 -0.018000 0.000000 0.000000 -0.018000 0.006000 0.000000 -0.006000 0.006000 0.000000 -0.006000 0.006000 0.000000 -0.006000 0.006000 0.000000 -0.006000 0.006000 0.000000 -0.006000 0.006000 0.000000 -0.006000 0.006000 0.000000 -0.018000 0.006000 0.000000 -0.018000 0.009000 0.000000 -0.006000 -0.009000 0.000000 -0.006000 -0.006000 0.000000 -0.006000 -0.006000 0.000000 -0.018000 -0.006000 0.000000 -0.018000 -0.006000 0.000000 -0.012000 -0.006000 0.000000 -0.012000 -0.006000 0.000000 -0.012000 -0.006000 0.000000 -0.018000 -0.006000 0.000000 -0.012000 -0.000000 0.000000 -0.018000 -0.000000 0.000000 -0.018000 0.006000 0.000000 -0.006000 0.006000 0.000000 -0.006000 0.006000 0.000000 -0.006000 0.006000 0.000000 -0.006000 0.006000 0.000000 -0.006000 0.006000 0.000000 -0.006000 0.006000 0.000000 -0.018000 0.006000 0.000000 -0.018000 0.009000 0.000000 -0.006000 -0.009000 0.000000 -0.006000 -0.012000 0.000000 -0.005998 -0.011979 0.000000 -0.018001 -0.005929 0.000000 -0.017993 -0.005972 0.000000 -0.012008 -0.006000 0.000000 -0.012007 -0.005999 0.000000 -0.017993 0.000009 0.000000 -0.018000 0.000000 0.000000 -0.018000 0.000010 0.000000 -0.018000 0.000034 0.000000 -0.018000 0.000041 0.000000 -0.006000 0.006000 0.000000 -0.006000 0.006000 0.000000 -0.006000 0.006000 0.000000 -0.006000 0.006000 0.000000 -0.006000 0.006000 0.000000 -0.005998 0.006000 0.000000 -0.018002 0.012000 0.000000 -0.018000 0.009000 0.000000 -0.006000 -0.033000 0.000000 -0.006000 -0.018000 0.000000 -0.006000 -0.018020 0.000000 -0.006000 -0.018071 0.000000 -0.006000 -0.012028 0.000000 -0.012001 -0.012001 0.000000 -0.012000 -0.012001 0.000000 -0.018000 -0.012042 0.000000 -0.018000 -0.012044 0.000000 -0.018000 -0.006031 0.000000 -0.018000 -0.000078 0.000000 -0.018000 -0.000092 0.000000 -0.006000 0.006000 0.000000 -0.006000 0.006000 0.000000 -0.006000 0.006000 0.000000 -0.006000 0.006000 0.000000 -0.006000 0.006000 0.000000 -0.006000 0.006000 0.000000 -0.018000 0.006000 0.000000 -0.018000 0.009000 0.000000 -0.006000 -0.015000 0.000000 -0.006000 -0.012000 0.000000 -0.006000 -0.011981 0.000000 -0.006000 -0.005929 0.000000 -0.005995 -0.005972 0.000000 -0.012005 -0.006000 0.000000 -0.012000 0.000001 0.000000 -0.005999 -0.005949 0.000000 -0.012001 0.000091 0.000000 -0.005999 0.000021 0.000000 -0.018001 0.006043 0.000000 -0.012000 0.006051 0.000000 -0.006000 0.006000 0.000000 -0.006000 0.006000 0.000000 -0.006000 0.006000 0.000000 -0.006000 0.006000 0.000000 -0.006000 0.006000 0.000000 -0.006000 0.006000 0.000000 -0.018000 0.006000 0.000000 -0.012000 0.009000 0.000000 -0.006000 -0.009000 0.000000 -0.006000 -0.012000 0.000000 -0.006000 -0.011999 0.000000 -0.006000 -0.006000 0.000000 -0.006000 -0.006000 0.000000 -0.006000 -0.006000 0.000000 -0.018000 -0.006000 0.000000 -0.006000 -0.000017 0.000000 -0.012000 -0.000048 0.000000 -0.006000 -0.000000 0.000000 -0.012000 -0.000000 0.000000 -0.012000 0.006000 0.000000 -0.006000 0.006000 0.000000 -0.006000 0.006000 0.000000 -0.006000 0.006000 0.000000 -0.006000 0.006000 0.000000 -0.006000 0.006000 0.000000 -0.006000 0.006000 0.000000 -0.018000 0.006000 0.000000 -0.012000 0.009000 0.000000 -0.006000 -0.009000 0.000000 -0.006000 -0.006000 0.000000 -0.006000 -0.006000 0.000000 -0.006000 -0.006000 0.000000 -0.006000 -0.006000 0.000000 -0.006000 -0.006000 0.000000 -0.006000 -0.006000 0.000000 -0.006000 -0.006000 0.000000 -0.012000 -0.006000 0.000000 -0.006000 0.000000 0.000000 -0.012000 0.000000 0.000000 -0.012000 0.006000 0.000000 -0.006000 0.006000 0.000000 -0.006000 0.006000 0.000000 -0.006000 0.006000 0.000000 -0.006000 0.006000 0.000000 -0.006000 0.006000 0.000000 -0.006000 0.006000 0.000000 -0.018000 0.006000 0.000000 -0.012000 0.009000 0.000000 -0.006000 -0.009000 0.000000 -0.006000 -0.006000 0.000000 -0.006000 -0.006000 0.000000 -0.006000 -0.006000 0.000000 -0.006000 -0.006000 0.000000 -0.006000 -0.006000 0.000000 -0.006000 -0.006000 0.000000 -0.006000 -0.006000 0.000000 -0.012000 -0.006000 0.000000 -0.006000 0.000000 0.000000 -0.012000 0.000000 0.000000 -0.012000 0.006000 0.000000 -0.006000 0.006000 0.000000 -0.006000 0.006000 0.000000 -0.006000 0.006000 0.000000 -0.006000 0.006000 0.000000 -0.006000 0.006000 0.000000 -0.006000 0.006000 0.000000 -0.018000 0.006000 0.000000 -0.012000 0.009000 0.000000 -0.006000 -0.009000 0.000000 -0.006000 -0.006000 0.000000 -0.006000 -0.006000 0.000000 -0.006000 -0.006000 0.000000 -0.006000 -0.006000 0.000000 -0.006000 -0.006000 0.000000 -0.006000 -0.006000 0.000000 -0.006000 -0.006000 0.000000 -0.006000 -0.006000 0.000000 -0.006000 -0.000000 0.000000 -0.012000 0.000000 0.000000 -0.018000 0.006000 0.000000 -0.006000 0.006000 0.000000 -0.006000 0.006000 0.000000 -0.006000 0.006000 0.000000 -0.006000 0.006000 0.000000 -0.006000 0.006000 0.000000 -0.006000 0.006000 0.000000 -0.012000 0.006000 0.000000 -0.012000 0.009000 0.000000 -0.006000 -0.009000 0.000000 -0.006000 -0.006000 0.000000 -0.006000 -0.006000 0.000000 -0.006000 -0.006000 0.000000 -0.006000 -0.006000 0.000000 -0.006000 -0.006000 0.000000 -0.006000 -0.006000 0.000000 -0.006000 -0.006000 0.000000 -0.006000 -0.006000 0.000000 -0.006000 0.000000 0.000000 -0.012000 0.000000 0.000000 -0.012000 0.006000 0.000000 -0.006000 0.006000 0.000000 -0.006000 0.006000 0.000000 -0.006000 0.006000 0.000000 -0.006000 0.006000 0.000000 -0.006000 0.006000 0.000000 -0.006000 0.006000 0.000000 -0.012000 0.006000 0.000000 -0.012000 0.009000 0.000000 -0.006000 -0.009000 0.000000 -0.006000 -0.006000 0.000000 -0.006000 -0.006000 0.000000 -0.006000 -0.006000 0.000000 -0.006000 -0.006000 0.000000 -0.006000 -0.006000 0.000000 -0.006000 -0.006000 0.000000 -0.006000 -0.006000 0.000000 -0.006000 -0.006000 0.000000 -0.006000 0.000000 0.000000 -0.012000 0.000000 0.000000 -0.012000 0.006000 0.000000 -0.006000 0.006000 0.000000 -0.006000 0.006000 0.000000 -0.006000 0.006000 0.000000 -0.006000 0.006000 0.000000 -0.006000 0.006000 0.000000 -0.006000 0.006000 0.000000 -0.012000 0.006000 0.000000 -0.012000 0.009000 0.000000 -0.006000 -0.009000 0.000000 -0.006000 -0.006000 0.000000 -0.006000 -0.006000 0.000000 -0.006000 -0.006000 0.000000 -0.006000 -0.006000 0.000000 -0.006000 -0.006000 0.000000 -0.006000 -0.006000 0.000000 -0.006000 -0.006000 0.000000 -0.006000 -0.006000 0.000000 -0.006000 0.000000 0.000000 -0.006000 0.000000 0.000000 -0.006000 0.006000 0.000000 -0.006000 0.006000 0.000000 -0.006000 0.006000 0.000000 -0.006000 0.006000 0.000000 -0.006000 0.006000 0.000000 -0.006000 0.006000 0.000000 -0.006000 0.006000 0.000000 -0.012000 0.006000 0.000000 -0.012000 0.009000 0.000000 -0.006000 -0.009000 0.000000 -0.006000 -0.006000 0.000000 -0.006000 -0.006000 0.000000 -0.006000 -0.006000 0.000000 -0.006000 -0.006000 0.000000 -0.006000 -0.006000 0.000000 -0.006000 -0.006000 0.000000 -0.006000 -0.006000 0.000000 -0.006000 -0.006000 0.000000 -0.006000 0.000000 0.000000 -0.006000 0.000000 0.000000 -0.006000 0.006000 0.000000 -0.006000 0.006000 0.000000 -0.006000 0.006000 0.000000 -0.006000 0.006000 0.000000 -0.006000 0.006000 0.000000 -0.006000 0.006000 0.000000 -0.006000 0.006000 0.000000 -0.012000 0.006000 0.000000 -0.006000 0.009000 0.000000 -0.006000 -0.009000 0.000000 -0.006000 -0.006000 0.000000 -0.006000 -0.006000 0.000000 -0.006000 -0.006000 0.000000 -0.006000 -0.006000 0.000000 -0.006000 -0.006000 0.000000 -0.006000 -0.006000 0.000000 -0.006000 -0.006000 0.000000 -0.006000 -0.006000 0.000000 -0.006000 0.000000 0.000000 -0.006000 0.000000 0.000000 -0.006000 0.006000 0.000000 -0.006000 0.006000 0.000000 -0.006000 0.006000 0.000000 -0.006000 0.006000 0.000000 -0.006000 0.006000 0.000000 -0.006000 0.006000 0.000000 -0.006000 0.006000 0.000000 -0.012000 0.006000 0.000000 -0.006000 0.009000 0.000000 -0.006000 -0.009000 0.000000 -0.006000 -0.006000 0.000000 -0.006000 -0.006000 0.000000 -0.006000 -0.006000 0.000000 -0.006000 -0.006000 0.000000 -0.006000 -0.006000 0.000000 -0.006000 -0.006000 0.000000 -0.006000 -0.006000 0.000000 -0.006000 -0.006000 0.000000 -0.006000 0.000000 0.000000 -0.006000 0.000000 0.000000 -0.006000 0.006000 0.000000 -0.006000 0.006000 0.000000 -0.006000 0.006000 0.000000 -0.006000 0.006000 0.000000 -0.006000 0.006000 0.000000 -0.006000 0.006000 0.000000 -0.006000 0.006000 0.000000 -0.012000 0.006000 0.000000 -0.006000 0.009000 0.000000 -0.006000 -0.009000 0.000000 -0.006000 -0.006000 0.000000 -0.006000 -0.006000 0.000000 -0.006000 -0.006000 0.000000 -0.006000 -0.006000 0.000000 -0.006000 -0.006000 0.000000 -0.006000 -0.006000 0.000000 -0.006000 -0.006000 0.000000 -0.006000 -0.006000 0.000000 -0.006000 0.000000 0.000000 -0.006000 0.000000 0.000000 -0.006000 0.006000 0.000000 -0.006000 0.006000 0.000000 -0.006000 0.006000 0.000000 -0.006000 0.006000 0.000000 -0.006000 0.006000 0.000000 -0.006000 0.006000 0.000000 -0.006000 0.006000 0.000000 -0.012000 0.006000 0.000000 -0.006000 0.009000 0.000000 -0.006000 -0.009000 0.000000 -0.006000 -0.006000 0.000000 -0.006000 -0.006000 0.000000 -0.006000 -0.006000 0.000000 -0.006000 -0.006000 0.000000 -0.006000 -0.006000 0.000000 -0.006000 -0.006000 0.000000 -0.006000 -0.006000 0.000000 -0.006000 -0.006000 0.000000 -0.006000 0.000000 0.000000 -0.006000 0.000000 0.000000 -0.006000 0.006000 0.000000 -0.006000 0.006000 0.000000 -0.006000 0.006000 0.000000 -0.006000 0.006000 0.000000 -0.006000 0.006000 0.000000 -0.006000 0.006000 0.000000 -0.006000 0.006000 0.000000 -0.006000 0.006000 0.000000 -0.006000 0.009000 0.000000 -0.006000 -0.009000 0.000000 -0.006000 -0.006000 0.000000 -0.006000 -0.006000 0.000000 -0.006000 -0.006000 0.000000 -0.006000 -0.006000 0.000000 -0.006000 -0.006000 0.000000 -0.006000 -0.006000 0.000000 -0.006000 -0.006000 0.000000 -0.006000 -0.006000 0.000000 -0.006000 0.000000 0.000000 -0.006000 0.000000 0.000000 -0.006000 0.006000 0.000000 -0.006000 0.006000 0.000000 -0.006000 0.006000 0.000000 -0.006000 0.006000 0.000000 -0.006000 0.006000 0.000000 -0.006000 0.006000 0.000000 -0.006000 0.006000 0.000000 -0.006000 0.006000 0.000000 -0.006000 0.009000 0.000000 -0.006000 -0.009000 0.000000 -0.006000 -0.006000 0.000000 -0.006000 -0.006000 0.000000 -0.006000 -0.006000 0.000000 -0.006000 -0.006000 0.000000 -0.006000 -0.006000 0.000000 -0.006000 -0.006000 0.000000 -0.006000 -0.006000 0.000000 -0.006000 -0.006000 0.000000 -0.006000 0.000000 0.000000 -0.006000 0.000000 0.000000 -0.006000 0.006000 0.000000 -0.006000 0.006000 0.000000 -0.006000 0.006000 0.000000 -0.006000 0.006000 0.000000 -0.006000 0.006000 0.000000 -0.006000 0.006000 0.000000 -0.006000 0.006000 0.000000 -0.006000 0.006000 0.000000 -0.006000 0.009000 0.000000 -0.006000 -0.009000 0.000000 -0.006000 -0.006000 0.000000 -0.006000 -0.006000 0.000000 -0.006000 -0.006000 0.000000 -0.006000 -0.006000 0.000000 -0.006000 -0.006000 0.000000 -0.006000 -0.006000 0.000000 -0.006000 -0.006000 0.000000 -0.006000 -0.006000 0.000000 -0.006000 0.000000 0.000000 -0.006000 0.000000 0.000000 -0.006000 0.006000 0.000000 -0.006000 0.006000 0.000000 -0.006000 0.006000 0.000000 -0.006000 0.006000 0.000000 -0.006000 0.006000 0.000000 -0.006000 0.006000 0.000000 -0.006000 0.006000 0.000000 -0.006000 0.006000 0.000000 -0.006000 0.009000 0.000000 -0.006000 -0.009000 0.000000 -0.006000 -0.006000 0.000000 -0.006000 -0.006000 0.000000 -0.006000 -0.006000 0.000000 -0.006000 -0.006000 0.000000 -0.006000 -0.006000 0.000000 -0.006000 -0.006000 0.000000 -0.006000 -0.006000 0.000000 -0.006000 -0.006000 0.000000 -0.006000 0.000000 0.000000 -0.006000 0.000000 0.000000 -0.006000 0.006000 0.000000 -0.006000 0.006000 0.000000 -0.006000 0.006000 0.000000 -0.006000 0.006000 0.000000 -0.006000 0.006000 0.000000 -0.006000 0.006000 0.000000 -0.006000 0.006000 0.000000 0.000000 0.006000 0.000000 -0.006000 0.009000 0.000000 -0.006000 -0.009000 0.000000 -0.006000 -0.006000 0.000000 -0.006000 -0.006000 0.000000 -0.006000 -0.006000 0.000000 -0.006000 -0.006000 0.000000 -0.006000 -0.006000 0.000000 -0.006000 -0.006000 0.000000 -0.006000 -0.006000 0.000000 -0.006000 -0.006000 0.000000 -0.006000 0.000000 0.000000 -0.006000 0.000000 0.000000 -0.006000 0.006000 0.000000 -0.006000 0.006000 0.000000 -0.006000 0.006000 0.000000 -0.006000 0.006000 0.000000 -0.006000 0.006000 0.000000 -0.006000 0.006000 0.000000 -0.006000 0.006000 0.000000 0.000000 0.006000 0.000000 -0.006000 0.009000 0.000000 -0.006000 -0.009000 0.000000 -0.006000 -0.006000 0.000000 -0.006000 -0.006000 0.000000 -0.006000 -0.006000 0.000000 -0.006000 -0.006000 0.000000 -0.006000 -0.006000 0.000000 -0.006000 -0.006000 0.000000 -0.006000 -0.006000 0.000000 -0.006000 -0.006000 0.000000 -0.006000 0.000000 0.000000 -0.006000 0.000000 0.000000 -0.006000 0.006000 0.000000 -0.006000 0.006000 0.000000 -0.006000 0.006000 0.000000 -0.006000 0.006000 0.000000 -0.006000 0.006000 0.000000 -0.006000 0.006000 0.000000 -0.006000 0.006000 0.000000 -0.000000 0.006000 0.000000 -0.006000 0.009000 0.000000 -0.006000 -0.009000 0.000000 -0.006000 -0.006000 0.000000 -0.006000 -0.006000 0.000000 -0.006000 -0.006000 0.000000 -0.006000 -0.006000 0.000000 -0.006000 -0.006000 0.000000 -0.006000 -0.006000 0.000000 -0.006000 -0.006000 0.000000 -0.006000 -0.006000 0.000000 -0.006000 0.000000 0.000000 -0.006000 0.000000 0.000000 -0.006000 0.006000 0.000000 -0.006000 0.006000 0.000000 -0.006000 0.006000 0.000000 -0.006000 0.006000 0.000000 -0.006000 0.006000 0.000000 -0.006000 0.006000 0.000000 -0.006000 0.006000 0.000000 0.000000 0.006000 0.000000 -0.006000 0.009000 0.000000 -0.006000 -0.009000 0.000000 -0.006000 -0.006000 0.000000 -0.006000 -0.006000 0.000000 -0.006000 -0.006000 0.000000 -0.006000 -0.006000 0.000000 -0.006000 -0.006000 0.000000 -0.006000 -0.006000 0.000000 -0.006000 -0.006000 0.000000 -0.006000 -0.006000 0.000000 -0.006000 0.000000 0.000000 -0.006000 0.000000 0.000000 -0.000000 0.006000 0.000000 -0.006000 0.006000 0.000000 -0.006000 0.006000 0.000000 -0.006000 0.006000 0.000000 -0.006000 0.006000 0.000000 -0.006000 0.006000 0.000000 -0.006000 0.006000 0.000000 0.000000 0.006000 0.000000 0.000000 0.009000 0.000000 -0.006000 -0.009000 0.000000 -0.006000 -0.006000 0.000000 -0.006000 -0.006000 0.000000 -0.006000 -0.006000 0.000000 -0.006000 -0.006000 0.000000 -0.006000 -0.006000 0.000000 -0.006000 -0.006000 0.000000 -0.006000 -0.006000 0.000000 -0.006000 -0.006000 0.000000 -0.006000 0.000000 0.000000 -0.000000 0.000000 0.000000 0.000000 0.006000 0.000000 -0.006000 0.006000 0.000000 -0.006000 0.006000 0.000000 -0.006000 0.006000 0.000000 -0.006000 0.006000 0.000000 -0.006000 0.006000 0.000000 -0.006000 0.006000 0.000000 0.006000 0.006000 0.000000 -0.000000 0.009000 0.000000 -0.006000 -0.009000 0.000000 -0.006000 -0.006000 0.000000 -0.006000 -0.006000 0.000000 -0.006000 -0.006000 0.000000 -0.006000 -0.006000 0.000000 -0.006000 -0.006000 0.000000 -0.006000 -0.006000 0.000000 -0.006000 -0.006000 0.000000 -0.006000 -0.006000 0.000000 -0.006000 -0.000000 0.000000 -0.000000 -0.000000 0.000000 -0.000000 0.006001 0.000000 -0.006000 0.006000 0.000000 -0.006000 0.006000 0.000000 -0.006000 0.006000 0.000000 -0.006000 0.006000 0.000000 -0.006000 0.006000 0.000000 -0.006000 0.006000 0.000000 0.006000 0.006000 0.000000 -0.000000 0.009000 0.000000 -0.006000 -0.009000 0.000000 -0.006000 -0.012000 0.000000 -0.006000 -0.011939 0.000000 -0.006000 -0.005969 0.000000 -0.006000 -0.005980 0.000000 -0.009000 -0.005974 0.000000 -0.006000 -0.005934 0.000000 -0.006001 0.000007 0.000000 0.000001 0.000022 0.000000 -0.006000 0.000124 0.000000 0.000000 0.000117 0.000000 0.000002 0.000501 0.000000 -0.006000 0.006000 0.000000 -0.006000 0.006000 0.000000 -0.006000 0.006000 0.000000 -0.006000 0.006000 0.000000 -0.006000 0.006000 0.000000 -0.006002 0.006000 0.000000 0.012002 0.012295 0.000000 0.000000 0.009155 0.000000 -0.006000 -0.369005 0.000000 -0.005999 -0.426007 0.000000 -0.006002 -0.372059 0.000000 -0.006000 -0.438032 0.000000 -0.005994 -0.387030 0.000000 -0.009010 -0.315039 0.000000 -0.005992 -0.336072 0.000000 -0.006203 -0.327018 0.000000 0.000417 -0.285650 0.000000 -0.012500 -0.359537 0.000000 0.000565 -0.381256 0.000000 -0.000251 -0.366780 0.000000 -0.012033 -0.371715 0.000000 -0.006000 -0.342853 0.000000 -0.006000 -0.345038 0.000000 -0.006000 -0.399588 0.000000 -0.005939 -0.376360 0.000000 -0.013252 -7.499937 0.000000 -0.006720 -2.384124 0.000000 0.014736 -7.715358 0.000000 -0.006000 -0.417004 0.000000 -0.006000 -0.372001 0.000000 -0.006000 -0.324003 0.000000 -0.006000 -0.360002 0.000000 -0.006003 -0.311996 0.000000 -0.006003 -0.459016 0.000000 0.000016 -0.333018 0.000000 -0.006202 -0.315019 0.000000 0.000410 -0.357593 0.000000 -0.000516 -0.413481 0.000000 0.000596 -0.357061 0.000000 -0.000255 -0.372327 0.000000 -0.006042 -0.431696 0.000000 -0.006000 -0.372781 0.000000 -0.006000 -0.266922 0.000000 -0.006000 -0.315795 0.000000 -0.005950 -0.388788 0.000000 -0.013258 -7.575920 0.000000 -0.007308 -2.419066 0.000000 0.006968 -7.795516 0.000000 -0.006000 -0.351003 0.000000 -0.006000 -0.396004 0.000000 -0.006040 -0.396001 0.000000 0.000051 -0.339006 0.000000 -0.005972 -0.357002 0.000000 -0.000064 -0.438003 0.000000 -0.000050 -0.336005 0.000000 -0.006013 -0.360013 0.000000 0.000304 -0.300607 0.000000 -0.000502 -0.368467 0.000000 0.000575 -0.354084 0.000000 -0.000240 -0.396304 0.000000 -0.006050 -0.389831 0.000000 -0.006000 -0.357784 0.000000 -0.006000 -0.299856 0.000000 -0.006000 -0.381667 0.000000 -0.005967 -0.351277 0.000000 -0.013701 -7.321809 0.000000 -0.006750 -2.491850 0.000000 0.011866 -7.968947 0.000000 -0.006000 -0.363005 0.000000 -0.006000 -0.365999 0.000000 -0.006047 -0.348001 0.000000 0.000043 -0.356999 0.000000 -0.001253 -0.402004 0.000000 -0.004669 -0.408023 0.000000 -0.004410 -0.350996 0.000000 -0.001706 -0.360003 0.000000 0.000258 -0.336618 0.000000 -0.000540 -0.293457 0.000000 0.000660 -0.351081 0.000000 -0.000284 -0.348388 0.000000 -0.006053 -0.401823 0.000000 -0.006000 -0.357742 0.000000 -0.006000 -0.320842 0.000000 -0.006000 -0.396636 0.000000 -0.005966 -0.406788 0.000000 -0.013908 -7.576037 0.000000 -0.000504 -2.418825 0.000000 0.016115 -7.757432 0.000000 -0.006000 -0.363005 0.000000 -0.006000 -0.365999 0.000000 -0.006054 -0.359999 0.000000 -0.005960 -0.342000 0.000000 -0.001249 -0.345003 0.000000 0.001334 -0.420017 0.000000 0.001623 -0.309005 0.000000 -0.001746 -0.429000 0.000000 0.000273 -0.393628 0.000000 -0.000595 -0.305443 0.000000 0.000789 -0.327094 0.000000 -0.000354 -0.372379 0.000000 -0.006062 -0.377801 0.000000 -0.006000 -0.363772 0.000000 -0.006000 -0.302827 0.000000 -0.006000 -0.390644 0.000000 -0.005990 -0.400806 0.000000 -0.008580 -7.576010 0