<VTKFile type="UnstructuredGrid" version="0.1" byte_order="LittleEndian">
  <UnstructuredGrid>
    <Piece NumberOfPoints="2000" NumberOfCells="0">
      <Points>
        <DataArray name="Position" type="Float32" NumberOfComponents="3" format="ascii">
-0.001051 -0.000634 0.000000 -0.001051 0.999578 0.000000 -0.001051 1.999578 0.000000 -0.001051 2.999578 0.000000 -0.001306 3.999579 0.000000 -0.001440 4.999579 0.000000 -0.001426 5.999579 0.000000 -0.001461 6.999579 0.000000 -0.001042 7.999580 0.000000 -0.001460 9.000000 0.000000 -0.001038 10.000001 0.000000 -0.001037 11.000420 0.000000 -0.001039 12.000421 0.000000 -0.001039 13.000421 0.000000 -0.001039 14.000421 0.000000 -0.001033 15.000421 0.000000 -0.001033 16.000422 0.000000 -0.001033 17.000422 0.000000 -0.001033 18.000422 0.000000 -0.001033 19.000634 0.000000 0.999575 -0.000634 0.000000 0.999575 0.999578 0.000000 0.999575 1.999578 0.000000 0.999575 2.999578 0.000000 0.999076 3.999579 0.000000 0.998777 4.999579 0.000000 0.998847 5.999579 0.000000 0.999161 6.999579 0.000000 0.999570 7.999580 0.000000 0.999162 9.000000 0.000000 0.999568 10.000001 0.000000 0.999568 11.000420 0.000000 0.999569 12.000421 0.000000 0.999569 13.000421 0.000000 0.999569 14.000421 0.000000 0.999566 15.000421 0.000000 0.999566 16.000422 0.000000 0.999566 17.000422 0.000000 0.999566 18.000422 0.000000 0.999566 19.000634 0.000000 1.999578 -0.000634 0.000000 1.999578 0.999578 0.000000 1.999578 1.999578 0.000000 1.999578 2.999578 0.000000 1.999574 3.999579 0.000000 1.999153 4.999579 0.000000 1.999146 5.999579 0.000000 1.999165 6.999579 0.000000 1.999578 7.999580 0.000000 1.999165 9.000000 0.000000 1.999578 10.000001 0.000000 1.999578 11.000420 0.000000 1.999578 12.000421 0.000000 1.999578 13.000421 0.000000 1.999578 14.000421 0.000000 1.999578 15.000421 0.000000 1.999578 16.000422 0.000000 1.999578 17.000422 0.000000 1.999578 18.000422 0.000000 1.999578 19.000634 0.000000 2.999578 -0.000634 0.000000 2.999578 0.999578 0.000000 2.999578 1.999578 0.000000 2.999578 2.999578 0.000000 2.999577 3.999579 0.000000 2.999161 4.999579 0.000000 2.999163 5.999579 0.000000 2.999169 6.999579 0.000000 2.999578 7.999580 0.000000 2.999169 9.000000 0.000000 2.999578 10.000001 0.000000 2.999578 11.000420 0.000000 2.999578 12.000421 0.000000 2.999578 13.000421 0.000000 2.999578 14.000421 0.000000 2.999578 15.000421 0.000000 2.999578 16.000422 0.000000 2.999578 17.000422 0.000000 2.999578 18.000422 0.000000 2.999578 19.000634 0.000000 3.999578 -0.000634 0.000000 3.999578 0.999578 0.000000 3.999578 1.999578 0.000000 3.999578 2.999578 0.000000 3.999577 3.999579 0.000000 3.999163 4.999579 0.000000 3.999168 5.999579 0.000000 3.999572 6.999579 0.000000 3.999578 7.999580 0.000000 3.999572 9.000000 0.000000 3.999578 10.000001 0.000000 3.999578 11.000420 0.000000 3.999578 12.000421 0.000000 3.999578 13.000421 0.000000 3.999578 14.000421 0.000000 3.999578 15.000421 0.000000 3.999578 16.000422 0.000000 3.999578 17.000422 0.000000 3.999578 18.000422 0.000000 3.999578 19.000634 0.000000 4.999579 -0.002227 0.000000 4.999579 0.998723 0.000000 4.999579 1.998744 0.000000 4.999579 2.998750 0.000000 4.999578 3.999147 0.000000 4.999164 4.999159 0.000000 4.999199 5.999168 0.000000 4.999577 6.999180 0.000000 4.999578 7.999579 0.000000 4.999577 8.999579 0.000000 4.999578 9.999579 0.000000 4.999578 11.000001 0.000000 4.999579 12.000421 0.000000 4.999579 13.000421 0.000000 4.999579 14.000421 0.000000 4.999579 15.000421 0.000000 4.999579 16.000422 0.000000 4.999579 17.000422 0.000000 4.999579 18.000422 0.000000 4.999579 19.000634 0.000000 5.999580 -0.001044 0.000000 5.999580 0.999196 0.000000 5.999580 1.999571 0.000000 5.999580 2.999578 0.000000 5.999580 3.999578 0.000000 5.999170 4.999578 0.000000 5.999204 5.999579 0.000000 5.999577 6.999961 0.000000 5.999579 7.999999 0.000000 5.999577 9.000000 0.000000 5.999579 10.000001 0.000000 5.999578 11.000420 0.000000 5.999579 12.000421 0.000000 5.999579 13.000421 0.000000 5.999579 14.000421 0.000000 5.999579 15.000421 0.000000 5.999579 16.000422 0.000000 5.999579 17.000422 0.000000 5.999579 18.000422 0.000000 5.999579 19.000634 0.000000 6.999580 -0.000634 0.000000 6.999580 0.999578 0.000000 6.999580 1.999578 0.000000 6.999580 2.999578 0.000000 6.999580 3.999579 0.000000 6.999570 4.999579 0.000000 6.999570 5.999579 0.000000 6.999578 6.999580 0.000000 6.999579 7.999580 0.000000 6.999578 8.999999 0.000000 6.999579 10.000001 0.000000 6.999579 11.000420 0.000000 6.999579 12.000421 0.000000 6.999579 13.000421 0.000000 6.999579 14.000421 0.000000 6.999579 15.000421 0.000000 6.999579 16.000422 0.000000 6.999579 17.000422 0.000000 6.999579 18.000422 0.000000 6.999579 19.000634 0.000000 7.999580 -0.000634 0.000000 7.999580 0.999578 0.000000 7.999580 1.999578 0.000000 7.999580 2.999578 0.000000 7.999581 3.999579 0.000000 7.999576 4.999579 0.000000 7.999576 5.999579 0.000000 7.999579 6.999579 0.000000 7.999580 7.999580 0.000000 7.999579 8.999999 0.000000 7.999579 10.000001 0.000000 7.999579 11.000420 0.000000 7.999579 12.000421 0.000000 7.999579 13.000421 0.000000 7.999579 14.000421 0.000000 7.999579 15.000421 0.000000 7.999579 16.000422 0.000000 7.999579 17.000422 0.000000 7.999579 18.000422 0.000000 7.999579 19.000634 0.000000 8.999580 -0.000634 0.000000 8.999580 0.999578 0.000000 8.999580 1.999578 0.000000 8.999580 2.999578 0.000000 8.999581 3.999579 0.000000 8.999577 4.999579 0.000000 8.999578 5.999579 0.000000 8.999580 6.999579 0.000000 8.999580 7.999580 0.000000 8.999580 9.000000 0.000000 8.999580 10.000001 0.000000 8.999580 11.000420 0.000000 8.999580 12.000421 0.000000 8.999580 13.000421 0.000000 8.999580 14.000421 0.000000 8.999580 15.000421 0.000000 8.999580 16.000422 0.000000 8.999580 17.000422 0.000000 8.999580 18.000422 0.000000 8.999580 19.000634 0.000000 9.999581 -0.000634 0.000000 9.999581 0.999578 0.000000 9.999581 1.999578 0.000000 9.999581 2.999578 0.000000 9.999581 3.999579 0.000000 9.999579 4.999579 0.000000 9.999579 5.999579 0.000000 9.999581 6.999579 0.000000 9.999580 7.999580 0.000000 9.999580 9.000000 0.000000 9.999580 10.000001 0.000000 9.999580 11.000420 0.000000 9.999580 12.000421 0.000000 9.999580 13.000421 0.000000 9.999580 14.000421 0.000000 9.999580 15.000421 0.000000 9.999580 16.000422 0.000000 9.999580 17.000422 0.000000 9.999580 18.000422 0.000000 9.999580 19.000634 0.000000 10.999581 -0.000634 0.000000 10.999581 0.999578 0.000000 10.999581 1.999578 0.000000 10.999581 2.999578 0.000000 10.999582 3.999579 0.000000 10.999584 4.999579 0.000000 10.999584 5.999579 0.000000 10.999582 6.999579 0.000000 10.999581 7.999580 0.000000 10.999582 9.000000 0.000000 10.999580 10.000001 0.000000 10.999580 11.000420 0.000000 10.999580 12.000421 0.000000 10.999580 13.000421 0.000000 10.999580 14.000421 0.000000 10.999580 15.000421 0.000000 10.999580 16.000422 0.000000 10.999580 17.000422 0.000000 10.999580 18.000422 0.000000 10.999580 19.000634 0.000000 11.999581 -0.000634 0.000000 11.999581 0.999578 0.000000 11.999581 1.999578 0.000000 11.999581 2.999578 0.000000 11.999582 3.999579 0.000000 11.999584 4.999579 0.000000 11.999584 5.999579 0.000000 11.999582 6.999579 0.000000 11.999581 7.999580 0.000000 11.999582 9.000000 0.000000 11.999581 10.000001 0.000000 11.999581 11.000420 0.000000 11.999581 12.000421 0.000000 11.999581 13.000421 0.000000 11.999581 14.000421 0.000000 11.999581 15.000421 0.000000 11.999581 16.000422 0.000000 11.999581 17.000422 0.000000 11.999581 18.000422 0.000000 11.999581 19.000634 0.000000 12.999582 -0.000634 0.000000 12.999582 0.999578 0.000000 12.999582 1.999578 0.000000 12.999582 2.999578 0.000000 12.999582 3.999579 0.000000 12.999584 4.999579 0.000000 12.999584 5.999579 0.000000 12.999583 6.999579 0.000000 12.999582 7.999580 0.000000 12.999583 9.000000 0.000000 12.999581 10.000001 0.000000 12.999581 11.000420 0.000000 12.999581 12.000421 0.000000 12.999581 13.000421 0.000000 12.999581 14.000421 0.000000 12.999581 15.000421 0.000000 12.999581 16.000422 0.000000 12.999581 17.000422 0.000000 12.999581 18.000422 0.000000 12.999581 19.000634 0.000000 13.999582 -0.000634 0.000000 13.999582 0.999578 0.000000 13.999582 1.999578 0.000000 13.999582 2.999578 0.000000 13.999582 3.999579 0.000000 13.999584 4.999579 0.000000 13.999584 5.999579 0.000000 13.999583 6.999579 0.000000 13.999582 7.999580 0.000000 13.999583 9.000000 0.000000 13.999581 10.000001 0.000000 13.999581 11.000420 0.000000 13.999581 12.000421 0.000000 13.999581 13.000421 0.000000 13.999581 14.000421 0.000000 13.999581 15.000421 0.000000 13.999581 16.000422 0.000000 13.999581 17.000422 0.000000 13.999581 18.000422 0.000000 13.999581 19.000634 0.000000 14.999582 -0.000634 0.000000 14.999582 0.999578 0.000000 14.999582 1.999578 0.000000 14.999582 2.999578 0.000000 14.999583 3.999579 0.000000 14.999585 4.999579 0.000000 14.999585 5.999579 0.000000 14.999583 6.999579 0.000000 14.999582 7.999580 0.000000 14.999583 9.000000 0.000000 14.999582 10.000001 0.000000 14.999582 11.000420 0.000000 14.999582 12.000421 0.000000 14.999582 13.000421 0.000000 14.999582 14.000421 0.000000 14.999582 15.000421 0.000000 14.999582 16.000422 0.000000 14.999582 17.000422 0.000000 14.999582 18.000422 0.000000 14.999582 19.000634 0.000000 15.999582 -0.000634 0.000000 15.999582 0.999578 0.000000 15.999582 1.999578 0.000000 15.999582 2.999578 0.000000 15.999583 3.999579 0.000000 15.999585 4.999579 0.000000 15.999585 5.999579 0.000000 15.999584 6.999579 0.000000 15.999582 7.999580 0.000000 15.999584 9.000000 0.000000 15.999583 10.000001 0.000000 15.999583 11.000420 0.000000 15.999583 12.000421 0.000000 15.999583 13.000421 0.000000 15.999583 14.000421 0.000000 15.999582 15.000421 0.000000 15.999582 16.000422 0.000000 15.999582 17.000422 0.000000 15.999582 18.000422 0.000000 15.999582 19.000634 0.000000 16.999583 -0.000634 0.000000 16.999583 0.999578 0.000000 16.999583 1.999578 0.000000 16.999583 2.999578 0.000000 16.999583 3.999579 0.000000 16.999585 4.999579 0.000000 16.999585 5.999579 0.000000 16.999584 6.999579 0.000000 16.999583 7.999580
[...]
      <PointData Vectors="vector">
        <DataArray type="Float32" Name="Velocity" NumberOfComponents="3" format="ascii">
-0.015000 -0.009000 0.000000 -0.015000 -0.006000 0.000000 -0.015000 -0.006000 0.000000 -0.015000 -0.006000 0.000000 -0.021000 -0.006000 0.000000 -0.021000 -0.006000 0.000000 -0.021000 -0.006000 0.000000 -0.021000 -0.006000 0.000000 -0.015000 -0.006000 0.000000 -0.021000 0.000000 0.000000 -0.015000 0.000000 0.000000 -0.015000 0.006000 0.000000 -0.015000 0.006000 0.000000 -0.015000 0.006000 0.000000 -0.015000 0.006000 0.000000 -0.015000 0.006000 0.000000 -0.015000 0.006000 0.000000 -0.015000 0.006000 0.000000 -0.015000 0.006000 0.000000 -0.015000 0.009000 0.000000 -0.006000 -0.009000 0.000000 -0.006000 -0.006000 0.000000 -0.006000 -0.006000 0.000000 -0.006000 -0.006000 0.000000 -0.012000 -0.006000 0.000000 -0.018000 -0.006000 0.000000 -0.018000 -0.006000 0.000000 -0.012000 -0.006000 0.000000 -0.006000 -0.006000 0.000000 -0.012000 0.000000 0.000000 -0.006000 0.000000 0.000000 -0.006000 0.006000 0.000000 -0.006000 0.006000 0.000000 -0.006000 0.006000 0.000000 -0.006000 0.006000 0.000000 -0.006000 0.006000 0.000000 -0.006000 0.006000 0.000000 -0.006000 0.006000 0.000000 -0.006000 0.006000 0.000000 -0.006000 0.009000 0.000000 -0.006000 -0.009000 0.000000 -0.006000 -0.006000 0.000000 -0.006000 -0.006000 0.000000 -0.006000 -0.006000 0.000000 -0.006000 -0.006000 0.000000 -0.012000 -0.006000 0.000000 -0.012000 -0.006000 0.000000 -0.012000 -0.006000 0.000000 -0.006000 -0.006000 0.000000 -0.012000 0.000000 0.000000 -0.006000 0.000000 0.000000 -0.006000 0.006000 0.000000 -0.006000 0.006000 0.000000 -0.006000 0.006000 0.000000 -0.006000 0.006000 0.000000 -0.006000 0.006000 0.000000 -0.006000 0.006000 0.000000 -0.006000 0.006000 0.000000 -0.006000 0.006000 0.000000 -0.006000 0.009000 0.000000 -0.006000 -0.009000 0.000000 -0.006000 -0.006000 0.000000 -0.006000 -0.006000 0.000000 -0.006000 -0.006000 0.000000 -0.006000 -0.006000 0.000000 -0.012000 -0.006000 0.000000 -0.012000 -0.006000 0.000000 -0.012000 -0.006000 0.000000 -0.006000 -0.006000 0.000000 -0.012000 -0.000000 0.000000 -0.006000 -0.000000 0.000000 -0.006000 0.006000 0.000000 -0.006000 0.006000 0.000000 -0.006000 0.006000 0.000000 -0.006000 0.006000 0.000000 -0.006000 0.006000 0.000000 -0.006000 0.006000 0.000000 -0.006000 0.006000 0.000000 -0.006000 0.006000 0.000000 -0.006000 0.009000 0.000000 -0.006000 -0.009000 0.000000 -0.006000 -0.006000 0.000000 -0.006000 -0.006000 0.000000 -0.006000 -0.006000 0.000000 -0.006000 -0.005999 0.000000 -0.012000 -0.006000 0.000000 -0.012000 -0.005999 0.000000 -0.006000 -0.006000 0.000000 -0.006000 -0.006000 0.000000 -0.006000 0.000000 0.000000 -0.006000 0.000000 0.000000 -0.006000 0.006000 0.000000 -0.006000 0.006000 0.000000 -0.006000 0.006000 0.000000 -0.006000 0.006000 0.000000 -0.006000 0.006000 0.000000 -0.006000 0.006000 0.000000 -0.006000 0.006000 0.000000 -0.006000 0.006000 0.000000 -0.006000 0.009000 0.000000 -0.006000 -0.033000 0.000000 -0.006000 -0.018000 0.000000 -0.006000 -0.018000 0.000000 -0.006000 -0.018000 0.000000 -0.006000 -0.012001 0.000000 -0.012001 -0.012001 0.000000 -0.012000 -0.012001 0.000000 -0.006000 -0.012000 0.000000 -0.006000 -0.006000 0.000000 -0.006000 -0.006000 0.000000 -0.006000 -0.006000 0.000000 -0.006000 -0.000000 0.000000 -0.006000 0.006000 0.000000 -0.006000 0.006000 0.000000 -0.006000 0.006000 0.000000 -0.006000 0.006000 0.000000 -0.006000 0.006000 0.000000 -0.006000 0.006000 0.000000 -0.006000 0.006000 0.000000 -0.006000 0.009000 0.000000 -0.006000 -0.015000 0.000000 -0.006000 -0.012000 0.000000 -0.006000 -0.006000 0.000000 -0.006000 -0.006000 0.000000 -0.006000 -0.005999 0.000000 -0.012000 -0.006000 0.000000 -0.012000 -0.005999 0.000000 -0.006000 -0.000000 0.000000 -0.006000 0.000000 0.000000 -0.006000 0.000000 0.000000 -0.006000 0.000000 0.000000 -0.006000 0.006000 0.000000 -0.006000 0.006000 0.000000 -0.006000 0.006000 0.000000 -0.006000 0.006000 0.000000 -0.006000 0.006000 0.000000 -0.006000 0.006000 0.000000 -0.006000 0.006000 0.000000 -0.006000 0.006000 0.000000 -0.006000 0.009000 0.000000 -0.006000 -0.009000 0.000000 -0.006000 -0.006000 0.000000 -0.006000 -0.006000 0.000000 -0.006000 -0.006000 0.000000 -0.006000 -0.006000 0.000000 -0.006000 -0.006000 0.000000 -0.006000 -0.006000 0.000000 -0.006000 -0.006000 0.000000 -0.006000 -0.006000 0.000000 -0.006000 -0.000000 0.000000 -0.006000 0.000000 0.000000 -0.006000 0.006000 0.000000 -0.006000 0.006000 0.000000 -0.006000 0.006000 0.000000 -0.006000 0.006000 0.000000 -0.006000 0.006000 0.000000 -0.006000 0.006000 0.000000 -0.006000 0.006000 0.000000 -0.006000 0.006000 0.000000 -0.006000 0.009000 0.000000 -0.006000 -0.009000 0.000000 -0.006000 -0.006000 0.000000 -0.006000 -0.006000 0.000000 -0.006000 -0.006000 0.000000 -0.006000 -0.006000 0.000000 -0.006000 -0.006000 0.000000 -0.006000 -0.006000 0.000000 -0.006000 -0.006000 0.000000 -0.006000 -0.006000 0.000000 -0.006000 0.000000 0.000000 -0.006000 0.000000 0.000000 -0.006000 0.006000 0.000000 -0.006000 0.006000 0.000000 -0.006000 0.006000 0.000000 -0.006000 0.006000 0.000000 -0.006000 0.006000 0.000000 -0.006000 0.006000 0.000000 -0.006000 0.006000 0.000000 -0.006000 0.006000 0.000000 -0.006000 0.009000 0.000000 -0.006000 -0.009000 0.000000 -0.006000 -0.006000 0.000000 -0.006000 -0.006000 0.000000 -0.006000 -0.006000 0.000000 -0.006000 -0.006000 0.000000 -0.006000 -0.006000 0.000000 -0.006000 -0.006000 0.000000 -0.006000 -0.006000 0.000000 -0.006000 -0.006000 0.000000 -0.006000 0.000000 0.000000 -0.006000 0.000000 0.000000 -0.006000 0.006000 0.000000 -0.006000 0.006000 0.000000 -0.006000 0.006000 0.000000 -0.006000 0.006000 0.000000 -0.006000 0.006000 0.000000 -0.006000 0.006000 0.000000 -0.006000 0.006000 0.000000 -0.006000 0.006000 0.000000 -0.006000 0.009000 0.000000 -0.006000 -0.009000 0.000000 -0.006000 -0.006000 0.000000 -0.006000 -0.006000 0.000000 -0.006000 -0.006000 0.000000 -0.006000 -0.006000 0.000000 -0.006000 -0.006000 0.000000 -0.006000 -0.006000 0.000000 -0.006000 -0.006000 0.000000 -0.006000 -0.006000 0.000000 -0.006000 -0.000000 0.000000 -0.006000 0.000000 0.000000 -0.006000 0.006000 0.000000 -0.006000 0.006000 0.000000 -0.006000 0.006000 0.000000 -0.006000 0.006000 0.000000 -0.006000 0.006000 0.000000 -0.006000 0.006000 0.000000 -0.006000 0.006000 0.000000 -0.006000 0.006000 0.000000 -0.006000 0.009000 0.000000 -0.006000 -0.009000 0.000000 -0.006000 -0.006000 0.000000 -0.006000 -0.006000 0.000000 -0.006000 -0.006000 0.000000 -0.006000 -0.006000 0.000000 -0.006000 -0.006000 0.000000 -0.006000 -0.006000 0.000000 -0.006000 -0.006000 0.000000 -0.006000 -0.006000 0.000000 -0.006000 0.000000 0.000000 -0.006000 0.000000 0.000000 -0.006000 0.006000 0.000000 -0.006000 0.006000 0.000000 -0.006000 0.006000 0.000000 -0.006000 0.006000 0.000000 -0.006000 0.006000 0.000000 -0.006000 0.006000 0.000000 -0.006000 0.006000 0.000000 -0.006000 0.006000 0.000000 -0.006000 0.009000 0.000000 -0.006000 -0.009000 0.000000 -0.006000 -0.006000 0.000000 -0.006000 -0.006000 0.000000 -0.006000 -0.006000 0.000000 -0.006000 -0.006000 0.000000 -0.006000 -0.006000 0.000000 -0.006000 -0.006000 0.000000 -0.006000 -0.006000 0.000000 -0.006000 -0.006000 0.000000 -0.006000 0.000000 0.000000 -0.006000 0.000000 0.000000 -0.006000 0.006000 0.000000 -0.006000 0.006000 0.000000 -0.006000 0.006000 0.000000 -0.006000 0.006000 0.000000 -0.006000 0.006000 0.000000 -0.006000 0.006000 0.000000 -0.006000 0.006000 0.000000 -0.006000 0.006000 0.000000 -0.006000 0.009000 0.000000 -0.006000 -0.009000 0.000000 -0.006000 -0.006000 0.000000 -0.006000 -0.006000 0.000000 -0.006000 -0.006000 0.000000 -0.006000 -0.006000 0.000000 -0.006000 -0.006000 0.000000 -0.006000 -0.006000 0.000000 -0.006000 -0.006000 0.000000 -0.006000 -0.006000 0.000000 -0.006000 0.000000 0.000000 -0.006000 0.000000 0.000000 -0.006000 0.006000 0.000000 -0.006000 0.006000 0.000000 -0.006000 0.006000 0.000000 -0.006000 0.006000 0.000000 -0.006000 0.006000 0.000000 -0.006000 0.006000 0.000000 -0.006000 0.006000 0.000000 -0.006000 0.006000 0.000000 -0.006000 0.009000 0.000000 -0.006000 -0.009000 0.000000 -0.006000 -0.006000 0.000000 -0.006000 -0.006000 0.000000 -0.006000 -0.006000 0.000000 -0.006000 -0.006000 0.000000 -0.006000 -0.006000 0.000000 -0.006000 -0.006000 0.000000 -0.006000 -0.006000 0.000000 -0.006000 -0.006000 0.000000 -0.006000 0.000000 0.000000 -0.006000 0.000000 0.000000 -0.006000 0.006000 0.000000 -0.006000 0.006000 0.000000 -0.006000 0.006000 0.000000 -0.006000 0.006000 0.000000 -0.006000 0.006000 0.000000 -0.006000 0.006000 0.000000 -0.006000 0.006000 0.000000 -0.006000 0.006000 0.000000 -0.006000 0.009000 0.000000 -0.006000 -0.009000 0.000000 -0.006000 -0.006000 0.000000 -0.006000 -0.006000 0.000000 -0.006000 -0.006000 0.000000 -0.006000 -0.006000 0.000000 -0.006000 -0.006000 0.000000 -0.006000 -0.006000 0.000000 -0.006000 -0.006000 0.000000 -0.006000 -0.006000 0.000000 -0.006000 0.000000 0.000000 -0.006000 0.000000 0.000000 -0.006000 0.006000 0.000000 -0.006000 0.006000 0.000000 -0.006000 0.006000 0.000000 -0.006000 0.006000 0.000000 -0.006000 0.006000 0.000000 -0.006000 0.006000 0.000000 -0.006000 0.006000 0.000000 -0.006000 0.006000 0.000000 -0.006000 0.009000 0.000000 -0.006000 -0.009000 0.000000 -0.006000 -0.006000 0.000000 -0.006000 -0.006000 0.000000 -0.006000 -0.006000 0.000000 -0.006000 -0.006000 0.000000 -0.006000 -0.006000 0.000000 -0.006000 -0.006000 0.000000 -0.006000 -0.006000 0.000000 -0.006000 -0.006000 0.000000 -0.006000 0.000000 0.000000 -0.006000 0.000000 0.000000 -0.006000 0.006000 0.000000 -0.006000 0.006000 0.000000 -0.006000 0.006000 0.000000 -0.006000 0.006000 0.000000 -0.006000 0.006000 0.000000 -0.006000 0.006000 0.000000 -0.006000 0.006000 0.000000 -0.006000 0.006000 0.000000 -0.006000 0.009000 0.000000 -0.006000 -0.009000 0.000000 -0.006000 -0.006000 0.000000 -0.006000 -0.006000 0.000000 -0.006000 -0.006000 0.000000 -0.006000 -0.006000 0.000000 -0.006000 -0.006000 0.000000 -0.006000 -0.006000 0.000000 -0.006000 -0.006000 0.000000 -0.006000 -0.006000 0.000000 -0.006000 0.000000 0.000000 -0.006000 0.000000 0.000000 -0.006000 0.006000 0.000000 -0.006000 0.006000 0.000000 -0.006000 0.006000 0.000000 -0.006000 0.006000 0.000000 -0.006000 0.006000 0.000000 -0.006000 0.006000 0.000000 -0.006000 0.006000 0.000000 -0.006000 0.006000 0.000000 -0.006000 0.009000 0.000000 -0.006000 -0.009000 0.000000 -0.006000 -0.006000 0.000000 -0.006000 -0.006000 0.000000 -0.006000 -0.006000 0.000000 -0.006000 -0.006000 0.000000 -0.006000 -0.006000 0.000000 -0.006000 -0.006000 0.000000 -0.006000 -0.006000 0.000000 -0.006000 -0.006000 0.000000 -0.006000 0.000000 0.000000 -0.006000 0.000000 0.000000 -0.006000 0.006000 0.000000 -0.006000 0.006000 0.000000 -0.006000 0.006000 0.000000 -0.006000 0.006000 0.000000 -0.006000 0.006000 0.000000 -0.006000 0.006000 0.000000 -0.006000 0.006000 0.000000 -0.006000 0.006000 0.000000 -0.006000 0.009000 0.000000 -0.006000 -0.009000 0.000000 -0.006000 -0.006000 0.000000 -0.006000 -0.006000 0.000000 -0.006000 -0.006000 0.000000 -0.006000 -0.006000 0.000000 -0.006000 -0.006000 0.000000 -0.006000 -0.006000 0.000000 -0.006000 -0.006000 0.000000 -0.006000 -0.006000 0.000000 -0.006000 0.000000 0.000000 -0.006000 0.000000 0.000000 -0.006000 0.006000 0.000000 -0.006000 0.006000 0.000000 -0.006000 0.006000 0.000000 -0.006000 0.006000 0.000000 -0.006000 0.006000 0.000000 -0.006000 0.006000 0.000000 -0.006000 0.006000 0.000000 -0.006000 0.006000 0.000000 -0.006000 0.009000 0.000000 -0.006000 -0.009000 0.000000 -0.006000 -0.006000 0.000000 -0.006000 -0.006000 0.000000 -0.006000 -0.006000 0.000000 -0.006000 -0.006000 0.000000 -0.006000 -0.006000 0.000000 -0.006000 -0.006000 0.000000 -0.006000 -0.006000 0.000000 -0.006000 -0.006000 0.000000 -0.006000 0.000000 0.000000 -0.006000 0.000000 0.000000 -0.006000 0.006000 0.000000 -0.006000 0.006000 0.000000 -0.006000 0.006000 0.000000 -0.006000 0.006000 0.000000 -0.006000 0.006000 0.000000 -0.006000 0.006000 0.000000 -0.006000 0.006000 0.000000 -0.006000 0.006000 0.000000 -0.006000 0.009000 0.000000 -0.006000 -0.009000 0.000000 -0.006000 -0.006000 0.000000 -0.006000 -0.006000 0.000000 -0.006000 -0.006000 0.000000 -0.006000 -0.006000 0.000000 -0.006000 -0.006000 0.000000 -0.006000 -0.006000 0.000000 -0.006000 -0.006000 0.000000 -0.006000 -0.006000 0.000000 -0.006000 0.000000 0.000000 -0.006000 0.000000 0.000000 -0.006000 0.006000 0.000000 -0.006000 0.006000 0.000000 -0.006000 0.006000 0.000000 -0.006000 0.006000 0.000000 -0.006000 0.006000 0.000000 -0.006000 0.006000 0.000000 -0.006000 0.006000 0.000000 -0.006000 0.006000 0.000000 -0.006000 0.009000 0.000000 -0.006000 -0.009000 0.000000 -0.006000 -0.006000 0.000000 -0.006000 -0.006000 0.000000 -0.006000 -0.006000 0.000000 -0.006000 -0.006000 0.000000 -0.006000 -0.006000 0.000000 -0.006000 -0.006000 0.000000 -0.006000 -0.006000 0.000000 -0.006000 -0.006000 0.000000 -0.006000 0.000000 0.000000 -0.006000 0.000000 0.000000 -0.006000 0.006000 0.000000 -0.006000 0.006000 0.000000 -0.006000 0.006000 0.000000 -0.006000 0.006000 0.000000 -0.006000 0.006000 0.000000 -0.006000 0.006000 0.000000 -0.006000 0.006000 0.000000 -0.006000 0.006000 0.000000 -0.006000 0.009000 0.000000 -0.006000 -0.009000 0.000000 -0.006000 -0.006000 0.000000 -0.006000 -0.006000 0.000000 -0.006000 -0.006000 0.000000 -0.006000 -0.006000 0.000000 -0.006000 -0.006000 0.000000 -0.006000 -0.006000 0.000000 -0.006000 -0.006000 0.000000 -0.006000 -0.006000 0.000000 -0.006000 0.000000 0.000000 -0.006000 0.000000 0.000000 -0.006000 0.006000 0.000000 -0.006000 0.006000 0.000000 -0.006000 0.006000 0.000000 -0.006000 0.006000 0.000000 -0.006000 0.006000 0.000000 -0.006000 0.006000 0.000000 -0.006000 0.006000 0.000000 -0.006000 0.006000 0.000000 -0.006000 0.009000 0.000000 -0.006000 -0.009000 0.000000 -0.006000 -0.006000 0.000000 -0.006000 -0.006000 0.000000 -0.006000 -0.006000 0.000000 -0.006000 -0.006000 0.000000 -0.006000 -0.006000 0.000000 -0.006000 -0.006000 0.000000 -0.006000 -0.006000 0.000000 -0.006000 -0.006000 0.000000 -0.006000 0.000000 0.000000 -0.006000 0.000000 0.000000 -0.006000 0.006000 0.000000 -0.006000 0.006000 0.000000 -0.006000 0.006000 0.000000 -0.006000 0.006000 0.000000 -0.006000 0.006000 0.000000 -0.006000 0.006000 0.000000 -0.006000 0.006000 0.000000 -0.006000 0.006000 0.000000 -0.006000 0.009000 0.000000 -0.006000 -0.009000 0.000000 -0.006000 -0.006000 0.000000 -0.006000 -0.006000 0.000000 -0.006000 -0.006000 0.000000 -0.006000 -0.006000 0.000000 -0.006000 -0.006000 0.000000 -0.006000 -0.006000 0.000000 -0.006000 -0.006000 0.000000 -0.006000 -0.006000 0.000000 -0.006000 0.000000 0.000000 -0.006000 0.000000 0.000000 -0.006000 0.006000 0.000000 -0.006000 0.006000 0.000000 -0.006000 0.006000 0.000000 -0.006000 0.006000 0.000000 -0.006000 0.006000 0.000000 -0.006000 0.006000 0.000000 -0.006000 0.006000 0.000000 -0.006000 0.006000 0.000000 -0.006000 0.009000 0.000000 -0.006000 -0.009000 0.000000 -0.006000 -0.006000 0.000000 -0.006000 -0.006000 0.000000 -0.006000 -0.006000 0.000000 -0.006000 -0.006000 0.000000 -0.006000 -0.006000 0.000000 -0.006000 -0.006000 0.000000 -0.006000 -0.006000 0.000000 -0.006000 -0.006000 0.000000 -0.006000 0.000000 0.000000 -0.006000 0.000000 0.000000 -0.006000 0.006000 0.000000 -0.006000 0.006000 0.000000 -0.006000 0.006000 0.000000 -0.006000 0.006000 0.000000 -0.006000 0.006000 0.000000 -0.006000 0.006000 0.000000 -0.006000 0.006000 0.000000 -0.006000 0.006000 0.000000 -0.006000 0.009000 0.000000 -0.006000 -0.009000 0.000000 -0.006000 -0.006000 0.000000 -0.006000 -0.006000 0.000000 -0.006000 -0.006000 0.000000 -0.006000 -0.006000 0.000000 -0.006000 -0.006000 0.000000 -0.006000 -0.006000 0.000000 -0.006000 -0.006000 0.000000 -0.006000 -0.006000 0.000000 -0.006000 0.000000 0.000000 -0.006000 0.000000 0.000000 -0.006000 0.006000 0.000000 -0.006000 0.006000 0.000000 -0.006000 0.006000 0.000000 -0.006000 0.006000 0.000000 -0.006000 0.006000 0.000000 -0.006000 0.006000 0.000000 -0.006000 0.006000 0.000000 -0.006000 0.006000 0.000000 -0.006000 0.009000 0.000000 -0.006000 -0.009000 0.000000 -0.006000 -0.006000 0.000000 -0.006000 -0.006000 0.000000 -0.006000 -0.006000 0.000000 -0.006000 -0.006000 0.000000 -0.006000 -0.006000 0.000000 -0.006000 -0.006000 0.000000 -0.006000 -0.006000 0.000000 -0.006000 -0.006000 0.000000 -0.006000 0.000000 0.000000 -0.006000 0.000000 0.000000 -0.006000 0.006000 0.000000 -0.006000 0.006000 0.000000 -0.006000 0.006000 0.000000 -0.006000 0.006000 0.000000 -0.006000 0.006000 0.000000 -0.006000 0.006000 0.000000 -0.006000 0.006000 0.000000 -0.006000 0.006000 0.000000 -0.006000 0.009000 0.000000 -0.006000 -0.009000 0.000000 -0.006000 -0.006000 0.000000 -0.006000 -0.006000 0.000000 -0.006000 -0.006000 0.000000 -0.006000 -0.006000 0.000000 -0.006000 -0.006000 0.000000 -0.006000 -0.006000 0.000000 -0.006000 -0.006000 0.000000 -0.006000 -0.006000 0.000000 -0.006000 0.000000 0.000000 -0.006000 0.000000 0.000000 -0.006000 0.006000 0.000000 -0.006000 0.006000 0.000000 -0.006000 0.006000 0.000000 -0.006000 0.006000 0.000000 -0.006000 0.006000 0.000000 -0.006000 0.006000 0.000000 -0.006000 0.006000 0.000000 -0.006000 0.006000 0.000000 -0.006000 0.009000 0.000000 -0.006000 -0.009000 0.000000 -0.006000 -0.006000 0.000000 -0.006000 -0.006000 0.000000 -0.006000 -0.006000 0.000000 -0.006000 -0.006000 0.000000 -0.006000 -0.006000 0.000000 -0.006000 -0.006000 0.000000 -0.006000 -0.006000 0.000000 -0.006000 -0.006000 0.000000 -0.006000 0.000000 0.000000 -0.006000 0.000000 0.000000 -0.006000 0.006000 0.000000 -0.006000 0.006000 0.000000 -0.006000 0.006000 0.000000 -0.006000 0.006000 0.000000 -0.006000 0.006000 0.000000 -0.006000 0.006000 0.000000 -0.006000 0.006000 0.000000 -0.006000 0.006000 0.000000 -0.006000 0.009000 0.000000 -0.006000 -0.009000 0.000000 -0.006000 -0.006000 0.000000 -0.006000 -0.006000 0.000000 -0.006000 -0.006000 0.000000 -0.006000 -0.006000 0.000000 -0.006000 -0.006000 0.000000 -0.006000 -0.006000 0.000000 -0.006000 -0.006000 0.000000 -0.006000 -0.006000 0.000000 -0.006000 0.000000 0.000000 -0.006000 0.000000 0.000000 -0.006000 0.006000 0.000000 -0.006000 0.006000 0.000000 -0.006000 0.006000 0.000000 -0.006000 0.006000 0.000000 -0.006000 0.006000 0.000000 -0.006000 0.006000 0.000000 -0.006000 0.006000 0.000000 -0.006000 0.006000 0.000000 -0.006000 0.009000 0.000000 -0.006000 -0.009000 0.000000 -0.006000 -0.006000 0.000000 -0.006000 -0.006000 0.000000 -0.006000 -0.006000 0.000000 -0.006000 -0.006000 0.000000 -0.006000 -0.006000 0.000000 -0.006000 -0.006000 0.000000 -0.006000 -0.006000 0.000000 -0.006000 -0.006000 0.000000 -0.006000 0.000000 0.000000 -0.006000 0.000000 0.000000 -0.006000 0.006000 0.000000 -0.006000 0.006000 0.000000 -0.006000 0.006000 0.000000 -0.006000 0.006000 0.000000 -0.006000 0.006000 0.000000 -0.006000 0.006000 0.000000 -0.006000 0.006000 0.000000 -0.006000 0.006000 0.000000 -0.006000 0.009000 0.000000 -0.006000 -0.009000 0.000000 -0.006000 -0.006000 0.000000 -0.006000 -0.006000 0.000000 -0.006000 -0.006000 0.000000 -0.006000 -0.006000 0.000000 0.000000 -0.006000 0.000000 0.000000 -0.006000 0.000000 -0.006000 -0.006000 0.000000 -0.006000 -0.006000 0.000000 -0.006000 0.000000 0.000000 -0.006000 0.000000 0.000000 -0.006000 0.006000 0.000000 -0.006000 0.006000 0.000000 -0.006000 0.006000 0.000000 -0.006000 0.006000 0.000000 -0.006000 0.006000 0.000000 -0.006000 0.006000 0.000000 -0.006000 0.006000 0.000000 -0.006000 0.006000 0.000000 -0.006000 0.009000 0.000000 -0.006000 -0.009000 0.000000 -0.006000 -0.006000 0.000000 -0.006000 -0.006000 0.000000 -0.006000 -0.006000 0.000000 -0.006000 -0.006000 0.000000 0.000000 -0.006000 0.000000 0.000000 -0.006000 0.000000 -0.006000 -0.006000 0.000000 -0.006000 -0.006000 0.000000 -0.006000 0.000000 0.000000 -0.006000 0.000000 0.000000 -0.006000 0.006000 0.000000 -0.006000 0.006000 0.000000 -0.006000 0.006000 0.000000 -0.006000 0.006000 0.000000 -0.006000 0.006000 0.000000 -0.006000 0.006000 0.000000 -0.006000 0.006000 0.000000 -0.006000 0.006