<VTKFile type="UnstructuredGrid" version="0.1" byte_order="LittleEndian">
  <UnstructuredGrid>
    <Piece NumberOfPoints="2000" NumberOfCells="0">
      <Points>
        <DataArray name="Position" type="Float32" NumberOfComponents="3" format="ascii">
-0.005236 -0.003145 0.000000 -0.005236 0.997904 0.000000 -0.005236 1.997904 0.000000 -0.005236 2.997904 0.000000 -0.007165 3.997905 0.000000 -0.007299 4.997905 0.000000 -0.007285 5.997905 0.000000 -0.007320 6.997905 0.000000 -0.005227 7.997906 0.000000 -0.007319 9.000000 0.000000 -0.005223 10.000001 0.000000 -0.005222 11.002094 0.000000 -0.005224 12.002095 0.000000 -0.005224 13.002095 0.000000 -0.005224 14.002095 0.000000 -0.005218 15.002095 0.000000 -0.005218 16.002096 0.000000 -0.005218 17.002096 0.000000 -0.005218 18.002096 0.000000 -0.014246 19.003145 0.000000 0.997901 -0.003145 0.000000 0.997901 0.997904 0.000000 0.995455 1.997904 0.000000 0.995191 2.997904 0.000000 0.995177 3.997905 0.000000 0.993755 4.997905 0.000000 0.993825 5.997905 0.000000 0.995173 6.997905 0.000000 0.995156 7.997906 0.000000 0.995424 9.000000 0.000000 0.995122 10.000001 0.000000 0.995378 11.002094 0.000000 0.997436 12.002095 0.000000 0.997895 13.002095 0.000000 0.997895 14.002095 0.000000 0.997892 15.002095 0.000000 0.997892 16.002096 0.000000 0.995474 17.002096 0.000000 0.995183 18.002096 0.000000 0.985928 19.003145 0.000000 1.997904 -0.003145 0.000000 1.997904 0.997904 0.000000 1.997900 1.997904 0.000000 1.995195 2.997904 0.000000 1.995212 3.997905 0.000000 1.995623 4.997905 0.000000 1.995480 5.997905 0.000000 1.995203 6.997905 0.000000 1.995157 7.997906 0.000000 1.995445 9.000000 0.000000 1.995147 10.000001 0.000000 1.995408 11.002094 0.000000 1.997458 12.002095 0.000000 1.997904 13.002095 0.000000 1.997904 14.002095 0.000000 1.997904 15.002095 0.000000 1.997904 16.002096 0.000000 1.995541 17.002096 0.000000 1.995193 18.002096 0.000000 1.986038 19.003145 0.000000 2.997904 -0.003145 0.000000 2.997904 0.997547 0.000000 2.997904 1.997903 0.000000 2.995200 2.997902 0.000000 2.995230 3.997904 0.000000 2.995634 4.997904 0.000000 2.995798 5.997905 0.000000 2.995813 6.997906 0.000000 2.995159 7.998266 0.000000 2.995649 9.000000 0.000000 2.995151 10.000001 0.000000 2.995430 11.002094 0.000000 2.997458 12.002095 0.000000 2.997904 13.002095 0.000000 2.997904 14.002095 0.000000 2.997904 15.002095 0.000000 2.997904 16.002096 0.000000 2.995717 17.002096 0.000000 2.995210 18.002096 0.000000 2.986098 19.003141 0.000000 3.997904 -0.003625 0.000000 3.997904 0.996721 0.000000 3.997904 1.996877 0.000000 3.995268 2.996960 0.000000 3.995729 3.997094 0.000000 3.995804 4.998860 0.000000 3.995814 5.998947 0.000000 3.995817 6.999096 0.000000 3.995159 7.999194 0.000000 3.995813 9.000003 0.000000 3.995170 10.000009 0.000000 3.995453 11.000904 0.000000 3.997669 12.002095 0.000000 3.997904 13.002095 0.000000 3.997904 14.002095 0.000000 3.997904 15.002096 0.000000 3.997904 16.002096 0.000000 3.995766 17.002097 0.000000 3.995217 18.002996 0.000000 3.986160 19.003451 0.000000 4.997905 -0.011434 0.000000 4.997905 0.992280 0.000000 4.997903 1.993699 0.000000 4.997898 2.995153 0.000000 4.996954 3.995791 0.000000 4.995816 4.995809 0.000000 4.995816 5.995818 0.000000 4.995818 6.995821 0.000000 4.995196 7.996545 0.000000 4.995815 8.997897 0.000000 4.995172 9.999238 0.000000 4.995453 10.999982 0.000000 4.997669 12.002095 0.000000 4.997905 13.002095 0.000000 4.997905 14.002095 0.000000 4.997905 15.002095 0.000000 4.997905 16.002096 0.000000 4.995774 17.002096 0.000000 4.995238 18.002096 0.000000 4.986229 19.003139 0.000000 5.997906 -0.005229 0.000000 5.997906 0.995848 0.000000 5.997906 1.996616 0.000000 5.997906 2.996957 0.000000 5.997112 3.997907 0.000000 5.995820 4.998723 0.000000 5.995847 5.998866 0.000000 5.997570 6.999198 0.000000 5.996528 7.999981 0.000000 5.995817 9.000006 0.000000 5.995187 10.000972 0.000000 5.995513 11.001297 0.000000 5.997677 12.002095 0.000000 5.997905 13.002095 0.000000 5.997905 14.002095 0.000000 5.997905 15.002096 0.000000 5.997905 16.002096 0.000000 5.995804 17.002097 0.000000 5.995239 18.003067 0.000000 5.986565 19.003305 0.000000 6.997906 -0.003674 0.000000 6.997906 0.996680 0.000000 6.997906 1.997120 0.000000 6.997906 2.997536 0.000000 6.997716 3.997904 0.000000 6.995994 4.997903 0.000000 6.995856 5.998275 0.000000 6.997895 6.999123 0.000000 6.996534 7.999212 0.000000 6.997895 8.999999 0.000000 6.996512 10.000001 0.000000 6.996639 11.002094 0.000000 6.997687 12.002095 0.000000 6.997905 13.002095 0.000000 6.997905 14.002095 0.000000 6.997905 15.002095 0.000000 6.997905 16.002096 0.000000 6.995806 17.002096 0.000000 6.995239 18.002096 0.000000 6.986656 19.003144 0.000000 7.997906 -0.003145 0.000000 7.997906 0.997880 0.000000 7.997906 1.997903 0.000000 7.997906 2.997904 0.000000 7.997908 3.997904 0.000000 7.997895 4.997904 0.000000 7.997895 5.997905 0.000000 7.997900 6.997907 0.000000 7.996537 7.997929 0.000000 7.997901 8.999999 0.000000 7.996520 10.000001 0.000000 7.996650 11.002094 0.000000 7.997893 12.002095 0.000000 7.997905 13.002095 0.000000 7.997905 14.002095 0.000000 7.997905 15.002095 0.000000 7.997905 16.002096 0.000000 7.995850 17.002096 0.000000 7.995243 18.002096 0.000000 7.986659 19.003145 0.000000 8.997906 -0.003145 0.000000 8.997906 0.997904 0.000000 8.997906 1.997904 0.000000 8.997906 2.997904 0.000000 8.997908 3.997905 0.000000 8.997902 4.997905 0.000000 8.997902 5.997905 0.000000 8.997901 6.997905 0.000000 8.996541 7.997906 0.000000 8.997902 9.000000 0.000000 8.996525 10.000001 0.000000 8.996654 11.002094 0.000000 8.997904 12.002095 0.000000 8.997906 13.002095 0.000000 8.997906 14.002095 0.000000 8.997906 15.002095 0.000000 8.997906 16.002096 0.000000 8.995898 17.002096 0.000000 8.995273 18.002096 0.000000 8.986693 19.003145 0.000000 9.997907 -0.003145 0.000000 9.997907 0.997904 0.000000 9.997907 1.997904 0.000000 9.997907 2.997904 0.000000 9.997908 3.997905 0.000000 9.997903 4.997905 0.000000 9.997904 5.997905 0.000000 9.997902 6.997905 0.000000 9.997893 7.997906 0.000000 9.997902 9.000000 0.000000 9.996527 10.000001 0.000000 9.996656 11.002094 0.000000 9.997904 12.002095 0.000000 9.997906 13.002095 0.000000 9.997906 14.002095 0.000000 9.997906 15.002095 0.000000 9.997906 16.002096 0.000000 9.995894 17.002096 0.000000 9.996548 18.002096 0.000000 9.986699 19.003145 0.000000 10.997907 -0.003145 0.000000 10.997907 0.997904 0.000000 10.997907 1.997904 0.000000 10.997907 2.997904 0.000000 10.997909 3.997905 0.000000 10.997910 4.997905 0.000000 10.997910 5.997905 0.000000 10.997908 6.997905 0.000000 10.997908 7.997906 0.000000 10.997908 9.000000 0.000000 10.996527 10.000001 0.000000 10.996665 11.002094 0.000000 10.997905 12.002095 0.000000 10.997906 13.002095 0.000000 10.997906 14.002095 0.000000 10.997906 15.002095 0.000000 10.997906 16.002096 0.000000 10.995908 17.002096 0.000000 10.996549 18.002096 0.000000 10.986720 19.003145 0.000000 11.997907 -0.003145 0.000000 11.997907 0.997904 0.000000 11.997907 1.997904 0.000000 11.997907 2.997904 0.000000 11.997909 3.997905 0.000000 11.997910 4.997905 0.000000 11.997910 5.997905 0.000000 11.997908 6.997905 0.000000 11.997908 7.997906 0.000000 11.997908 9.000000 0.000000 11.996529 10.000001 0.000000 11.996667 11.002094 0.000000 11.997905 12.002095 0.000000 11.997907 13.002095 0.000000 11.997907 14.002095 0.000000 11.997907 15.002095 0.000000 11.997907 16.002096 0.000000 11.995905 17.002096 0.000000 11.996556 18.002096 0.000000 11.986932 19.003145 0.000000 12.997908 -0.003145 0.000000 12.997908 0.997904 0.000000 12.997908 1.997904 0.000000 12.997908 2.997904 0.000000 12.997909 3.997905 0.000000 12.997910 4.997905 0.000000 12.997910 5.997905 0.000000 12.997909 6.997905 0.000000 12.997909 7.997906 0.000000 12.997909 9.000000 0.000000 12.997891 10.000001 0.000000 12.997889 11.002094 0.000000 12.997905 12.002095 0.000000 12.997907 13.002095 0.000000 12.997907 14.002095 0.000000 12.997907 15.002095 0.000000 12.997907 16.002096 0.000000 12.995911 17.002096 0.000000 12.996558 18.002096 0.000000 12.987053 19.003145 0.000000 13.997908 -0.003145 0.000000 13.997908 0.997904 0.000000 13.997908 1.997904 0.000000 13.997908 2.997904 0.000000 13.997910 3.997905 0.000000 13.997910 4.997905 0.000000 13.997910 5.997905 0.000000 13.997909 6.997905 0.000000 13.997909 7.997906 0.000000 13.997909 9.000000 0.000000 13.997901 10.000001 0.000000 13.997899 11.002094 0.000000 13.997905 12.002095 0.000000 13.997907 13.002095 0.000000 13.997907 14.002095 0.000000 13.997907 15.002095 0.000000 13.997907 16.002096 0.000000 13.995920 17.002096 0.000000 13.996560 18.002096 0.000000 13.987089 19.003145 0.000000 14.997908 -0.003145 0.000000 14.997908 0.997904 0.000000 14.997908 1.997904 0.000000 14.997908 2.997904 0.000000 14.997910 3.997905 0.000000 14.997911 4.997905 0.000000 14.997911 5.997905 0.000000 14.997909 6.997905 0.000000 14.997909 7.997906 0.000000 14.997909 9.000000 0.000000 14.997901 10.000001 0.000000 14.997901 11.002094 0.000000 14.997909 12.002095 0.000000 14.997908 13.002095 0.000000 14.997908 14.002095 0.000000 14.997908 15.002095 0.000000 14.997908 16.002096 0.000000 14.995933 17.002096 0.000000 14.996562 18.002096 0.000000 14.987173 19.003145 0.000000 15.997908 -0.003145 0.000000 15.997908 0.997904 0.000000 15.997908 1.997904 0.000000 15.997908 2.997904 0.000000 15.997910 3.997905 0.000000 15.997911 4.997905 0.000000 15.997911 5.997905 0.000000 15.997910 6.997905 0.000000 15.997910 7.997906 0.000000 15.997910 9.000000 0.000000 15.997904 10.000001 0.000000 15.997904 11.002094 0.000000 15.997911 12.002095 0.000000 15.997909 13.002095 0.000000 15.997909 14.002095 0.000000 15.997908 15.002095 0.000000 15.997908 16.002096 0.000000 15.995935 17.002096 0.000000 15.996587 18.002096 0.000000 15.987187 19.003145 0.000000 16.997909 -0.003145 0.000000 16.997909 0.997904 0.000000 16.997909 1.997904 0.000000 16.997909 2.997904 0.000000 16.997911 3.997905 0.000000 16.997911 4.997905 0.000000 16.997911 5.997905 0.000000 16.997910 6.997905 0.000000 16.997910 7.997906
[...]
      <PointData Vectors="vector">
        <DataArray type="Float32" Name="Velocity" NumberOfComponents="3" format="ascii">
-0.015000 -0.009000 0.000000 -0.015000 -0.006000 0.000000 -0.015000 -0.006000 0.000000 -0.015000 -0.006000 0.000000 -0.021000 -0.006000 0.000000 -0.021000 -0.006000 0.000000 -0.021000 -0.006000 0.000000 -0.021000 -0.006000 0.000000 -0.015000 -0.006000 0.000000 -0.021000 0.000000 0.000000 -0.015000 0.000000 0.000000 -0.015000 0.006000 0.000000 -0.015000 0.006000 0.000000 -0.015000 0.006000 0.000000 -0.015000 0.006000 0.000000 -0.015000 0.006000 0.000000 -0.015000 0.006000 0.000000 -0.015000 0.006000 0.000000 -0.015000 0.006000 0.000000 -0.339004 0.009000 0.000000 -0.006000 -0.009000 0.000000 -0.006000 -0.006000 0.000000 -0.018000 -0.006000 0.000000 -0.018000 -0.006000 0.000000 -0.018000 -0.006000 0.000000 -0.018000 -0.006000 0.000000 -0.018000 -0.006000 0.000000 -0.018000 -0.006000 0.000000 -0.018000 -0.006000 0.000000 -0.018000 0.000000 0.000000 -0.018000 0.000000 0.000000 -0.018000 0.006000 0.000000 -0.018000 0.006000 0.000000 -0.006000 0.006000 0.000000 -0.006000 0.006000 0.000000 -0.006000 0.006000 0.000000 -0.006000 0.006000 0.000000 -0.156001 0.006000 0.000000 -0.018000 0.006000 0.000000 -0.306012 0.009000 0.000000 -0.006000 -0.009000 0.000000 -0.006000 -0.006000 0.000000 -0.006000 -0.006000 0.000000 -0.018000 -0.006000 0.000000 -0.018000 -0.006000 0.000000 -0.018000 -0.006000 0.000000 -0.018000 -0.006000 0.000000 -0.018000 -0.006000 0.000000 -0.018000 -0.006000 0.000000 -0.018000 0.000000 0.000000 -0.018000 0.000000 0.000000 -0.018000 0.006000 0.000000 -0.018000 0.006000 0.000000 -0.006000 0.006000 0.000000 -0.006000 0.006000 0.000000 -0.006000 0.006000 0.000000 -0.006000 0.006000 0.000000 -0.198003 0.006000 0.000000 -0.018000 0.006000 0.000000 -0.377993 0.009001 0.000000 -0.006000 -0.009000 0.000000 -0.006000 -0.012000 0.000000 -0.005988 -0.006000 0.000000 -0.018012 -0.006000 0.000000 -0.018001 -0.005997 0.000000 -0.017999 -0.006009 0.000000 -0.012000 -0.006004 0.000000 -0.011998 -0.006007 0.000000 -0.018002 0.000000 0.000000 -0.018000 -0.000000 0.000000 -0.018000 -0.000000 0.000000 -0.018000 0.006000 0.000000 -0.018000 0.006000 0.000000 -0.006000 0.006000 0.000000 -0.006000 0.006000 0.000000 -0.006000 0.006000 0.000000 -0.006000 0.006000 0.000000 -0.155999 0.006000 0.000000 -0.018000 0.006000 0.000000 -0.300009 0.008840 0.000000 -0.006000 -0.015000 0.000000 -0.006000 -0.012000 0.000000 -0.005985 -0.011979 0.000000 -0.018016 -0.011929 0.000000 -0.011986 -0.005975 0.000000 -0.012013 0.000042 0.000000 -0.012007 0.000020 0.000000 -0.011993 0.000027 0.000000 -0.018000 0.000000 0.000000 -0.012000 0.000032 0.000000 -0.018000 0.000034 0.000000 -0.018000 0.000041 0.000000 -0.012000 0.006000 0.000000 -0.006000 0.006000 0.000000 -0.006000 0.006000 0.000000 -0.006000 0.006000 0.000000 -0.006000 0.006000 0.000000 -0.167997 0.006001 0.000000 -0.018001 0.006000 0.000000 -0.396050 0.015380 0.000000 -0.006000 -0.033000 0.000000 -0.006000 -0.030000 0.000000 -0.006000 -0.018020 0.000000 -0.006000 -0.006071 0.000000 -0.012000 -0.012035 0.000000 -0.012001 -0.012065 0.000000 -0.012000 -0.012031 0.000000 -0.012000 -0.012055 0.000000 -0.018000 -0.012044 0.000000 -0.012000 -0.006065 0.000000 -0.018000 -0.000078 0.000000 -0.018000 -0.000092 0.000000 -0.012000 0.006000 0.000000 -0.006000 0.006000 0.000000 -0.006000 0.006000 0.000000 -0.006000 0.006000 0.000000 -0.006000 0.006000 0.000000 -0.180003 0.005999 0.000000 -0.018000 0.006000 0.000000 -0.306107 0.008740 0.000000 -0.006000 -0.015000 0.000000 -0.006000 -0.012000 0.000000 -0.006000 -0.011981 0.000000 -0.006000 -0.011929 0.000000 -0.011988 -0.005958 0.000000 -0.012012 -0.005958 0.000000 -0.012009 0.000021 0.000000 -0.017990 0.000051 0.000000 -0.012001 0.000091 0.000000 -0.011999 0.000033 0.000000 -0.018003 0.000043 0.000000 -0.017999 0.006051 0.000000 -0.011999 0.006000 0.000000 -0.006000 0.006000 0.000000 -0.006000 0.006000 0.000000 -0.006000 0.006000 0.000000 -0.006000 0.006000 0.000000 -0.119997 0.006001 0.000000 -0.017992 0.006000 0.000000 -0.275968 0.015078 0.000000 -0.006000 -0.015000 0.000000 -0.006000 -0.012000 0.000000 -0.006000 -0.005999 0.000000 -0.006000 -0.012000 0.000000 -0.011991 -0.006000 0.000000 -0.006009 -0.006009 0.000000 -0.012001 -0.000005 0.000000 -0.006000 -0.000005 0.000000 -0.012000 -0.000048 0.000000 -0.006000 -0.000000 0.000000 -0.012000 -0.000000 0.000000 -0.012000 0.006000 0.000000 -0.012000 0.006000 0.000000 -0.006000 0.006000 0.000000 -0.006000 0.006000 0.000000 -0.006000 0.006000 0.000000 -0.006000 0.006000 0.000000 -0.162003 0.005999 0.000000 -0.018000 0.006000 0.000000 -0.287918 0.008962 0.000000 -0.006000 -0.009000 0.000000 -0.006000 -0.012000 0.000000 -0.006000 -0.006000 0.000000 -0.006000 -0.006000 0.000000 -0.006000 -0.006000 0.000000 -0.006000 -0.006000 0.000000 -0.006000 -0.006000 0.000000 -0.005992 -0.006013 0.000000 -0.012008 0.000000 0.000000 -0.006000 0.000000 0.000000 -0.012000 0.000000 0.000000 -0.012000 0.006000 0.000000 -0.006000 0.006000 0.000000 -0.006000 0.006000 0.000000 -0.006000 0.006000 0.000000 -0.006000 0.006000 0.000000 -0.006000 0.006000 0.000000 -0.120006 0.006000 0.000000 -0.018000 0.006000 0.000000 -0.312106 0.009000 0.000000 -0.006000 -0.009000 0.000000 -0.006000 -0.006000 0.000000 -0.006000 -0.006000 0.000000 -0.006000 -0.006000 0.000000 -0.006000 -0.006000 0.000000 -0.006000 -0.006000 0.000000 -0.006000 -0.006000 0.000000 -0.006000 -0.006000 0.000000 -0.012000 -0.006000 0.000000 -0.006000 0.000000 0.000000 -0.012000 0.000000 0.000000 -0.012000 0.006000 0.000000 -0.006000 0.006000 0.000000 -0.006000 0.006000 0.000000 -0.006000 0.006000 0.000000 -0.006000 0.006000 0.000000 -0.006000 0.006000 0.000000 -0.152998 0.006000 0.000000 -0.018000 0.006000 0.000000 -0.252051 0.009000 0.000000 -0.006000 -0.009000 0.000000 -0.006000 -0.006000 0.000000 -0.006000 -0.006000 0.000000 -0.006000 -0.006000 0.000000 -0.006000 -0.006000 0.000000 -0.006000 -0.006000 0.000000 -0.006000 -0.006000 0.000000 -0.006000 -0.006000 0.000000 -0.006000 -0.006000 0.000000 -0.006000 -0.000000 0.000000 -0.012000 0.000000 0.000000 -0.012000 0.006000 0.000000 -0.006000 0.006000 0.000000 -0.006000 0.006000 0.000000 -0.006000 0.006000 0.000000 -0.006000 0.006000 0.000000 -0.006000 0.006000 0.000000 -0.117006 0.006000 0.000000 -0.012000 0.006000 0.000000 -0.305854 0.009000 0.000000 -0.006000 -0.009000 0.000000 -0.006000 -0.006000 0.000000 -0.006000 -0.006000 0.000000 -0.006000 -0.006000 0.000000 -0.006000 -0.006000 0.000000 -0.006000 -0.006000 0.000000 -0.006000 -0.006000 0.000000 -0.006000 -0.006000 0.000000 -0.006000 -0.006000 0.000000 -0.006000 0.000000 0.000000 -0.012000 0.000000 0.000000 -0.012000 0.006000 0.000000 -0.006000 0.006000 0.000000 -0.006000 0.006000 0.000000 -0.006000 0.006000 0.000000 -0.006000 0.006000 0.000000 -0.006000 0.006000 0.000000 -0.117017 0.006000 0.000000 -0.012000 0.006000 0.000000 -0.324060 0.009000 0.000000 -0.006000 -0.009000 0.000000 -0.006000 -0.006000 0.000000 -0.006000 -0.006000 0.000000 -0.006000 -0.006000 0.000000 -0.006000 -0.006000 0.000000 -0.006000 -0.006000 0.000000 -0.006000 -0.006000 0.000000 -0.006000 -0.006000 0.000000 -0.006000 -0.006000 0.000000 -0.006000 0.000000 0.000000 -0.012000 0.000000 0.000000 -0.012000 0.006000 0.000000 -0.006000 0.006000 0.000000 -0.006000 0.006000 0.000000 -0.006000 0.006000 0.000000 -0.006000 0.006000 0.000000 -0.006000 0.006000 0.000000 -0.164988 0.006000 0.000000 -0.012000 0.006000 0.000000 -0.323997 0.009000 0.000000 -0.006000 -0.009000 0.000000 -0.006000 -0.006000 0.000000 -0.006000 -0.006000 0.000000 -0.006000 -0.006000 0.000000 -0.006000 -0.006000 0.000000 -0.006000 -0.006000 0.000000 -0.006000 -0.006000 0.000000 -0.006000 -0.006000 0.000000 -0.006000 -0.006000 0.000000 -0.006000 0.000000 0.000000 -0.006000 0.000000 0.000000 -0.006000 0.006000 0.000000 -0.006000 0.006000 0.000000 -0.006000 0.006000 0.000000 -0.006000 0.006000 0.000000 -0.006000 0.006000 0.000000 -0.006000 0.006000 0.000000 -0.150008 0.006000 0.000000 -0.012000 0.006000 0.000000 -0.270315 0.009000 0.000000 -0.006000 -0.009000 0.000000 -0.006000 -0.006000 0.000000 -0.006000 -0.006000 0.000000 -0.006000 -0.006000 0.000000 -0.006000 -0.006000 0.000000 -0.006000 -0.006000 0.000000 -0.006000 -0.006000 0.000000 -0.006000 -0.006000 0.000000 -0.006000 -0.006000 0.000000 -0.006000 0.000000 0.000000 -0.006000 0.000000 0.000000 -0.006000 0.006000 0.000000 -0.006000 0.006000 0.000000 -0.006000 0.006000 0.000000 -0.006000 0.006000 0.000000 -0.006000 0.006000 0.000000 -0.006000 0.006000 0.000000 -0.137979 0.006000 0.000000 -0.012000 0.006000 0.000000 -0.281879 0.009000 0.000000 -0.006000 -0.009000 0.000000 -0.006000 -0.006000 0.000000 -0.006000 -0.006000 0.000000 -0.006000 -0.006000 0.000000 -0.006000 -0.006000 0.000000 -0.006000 -0.006000 0.000000 -0.006000 -0.006000 0.000000 -0.006000 -0.006000 0.000000 -0.006000 -0.006000 0.000000 -0.006000 0.000000 0.000000 -0.006000 0.000000 0.000000 -0.006000 0.006000 0.000000 -0.006000 0.006000 0.000000 -0.006000 0.006000 0.000000 -0.006000 0.006000 0.000000 -0.006000 0.006000 0.000000 -0.006000 0.006000 0.000000 -0.132018 0.006000 0.000000 -0.012000 0.006000 0.000000 -0.378115 0.009000 0.000000 -0.006000 -0.009000 0.000000 -0.006000 -0.006000 0.000000 -0.006000 -0.006000 0.000000 -0.006000 -0.006000 0.000000 -0.006000 -0.006000 0.000000 -0.006000 -0.006000 0.000000 -0.006000 -0.006000 0.000000 -0.006000 -0.006000 0.000000 -0.006000 -0.006000 0.000000 -0.006000 0.000000 0.000000 -0.006000 0.000000 0.000000 -0.006000 0.006000 0.000000 -0.006000 0.006000 0.000000 -0.006000 0.006000 0.000000 -0.006000 0.006000 0.000000 -0.006000 0.006000 0.000000 -0.006000 0.006000 0.000000 -0.176980 0.006000 0.000000 -0.012000 0.006000 0.000000 -0.353876 0.009000 0.000000 -0.006000 -0.009000 0.000000 -0.006000 -0.006000 0.000000 -0.006000 -0.006000 0.000000 -0.006000 -0.006000 0.000000 -0.006000 -0.006000 0.000000 -0.006000 -0.006000 0.000000 -0.006000 -0.006000 0.000000 -0.006000 -0.006000 0.000000 -0.006000 -0.006000 0.000000 -0.006000 0.000000 0.000000 -0.006000 0.000000 0.000000 -0.006000 0.006000 0.000000 -0.006000 0.006000 0.000000 -0.006000 0.006000 0.000000 -0.006000 0.006000 0.000000 -0.006000 0.006000 0.000000 -0.006000 0.006000 0.000000 -0.129055 0.006000 0.000000 -0.012000 0.006000 0.000000 -0.305852 0.009000 0.000000 -0.006000 -0.009000 0.000000 -0.006000 -0.006000 0.000000 -0.006000 -0.006000 0.000000 -0.006000 -0.006000 0.000000 -0.006000 -0.006000 0.000000 -0.006000 -0.006000 0.000000 -0.006000 -0.006000 0.000000 -0.006000 -0.006000 0.000000 -0.006000 -0.006000 0.000000 -0.006000 0.000000 0.000000 -0.006000 0.000000 0.000000 -0.006000 0.006000 0.000000 -0.006000 0.006000 0.000000 -0.006000 0.006000 0.000000 -0.006000 0.006000 0.000000 -0.006000 0.006000 0.000000 -0.006000 0.006000 0.000000 -0.138007 0.006000 0.000000 -0.006000 0.006000 0.000000 -0.297484 0.009000 0.000000 -0.006000 -0.009000 0.000000 -0.006000 -0.006000 0.000000 -0.006000 -0.006000 0.000000 -0.006000 -0.006000 0.000000 -0.006000 -0.006000 0.000000 -0.006000 -0.006000 0.000000 -0.006000 -0.006000 0.000000 -0.006000 -0.006000 0.000000 -0.006000 -0.006000 0.000000 -0.006000 0.000000 0.000000 -0.006000 0.000000 0.000000 -0.006000 0.006000 0.000000 -0.006000 0.006000 0.000000 -0.006000 0.006000 0.000000 -0.006000 0.006000 0.000000 -0.006000 0.006000 0.000000 -0.006000 0.006000 0.000000 -0.083946 0.006000 0.000000 -0.006000 0.006000 0.000000 -0.350386 0.009000 0.000000 -0.006000 -0.009000 0.000000 -0.006000 -0.006000 0.000000 -0.006000 -0.006000 0.000000 -0.006000 -0.006000 0.000000 -0.006000 -0.006000 0.000000 -0.006000 -0.006000 0.000000 -0.006000 -0.006000 0.000000 -0.006000 -0.006000 0.000000 -0.006000 -0.006000 0.000000 -0.006000 0.000000 0.000000 -0.006000 0.000000 0.000000 -0.006000 0.006000 0.000000 -0.006000 0.006000 0.000000 -0.006000 0.006000 0.000000 -0.006000 0.006000 0.000000 -0.006000 0.006000 0.000000 -0.006000 0.006000 0.000000 -0.171000 0.006000 0.000000 -0.006000 0.006000 0.000000 -0.300005 0.009000 0.000000 -0.006000 -0.009000 0.000000 -0.006000 -0.006000 0.000000 -0.006000 -0.006000 0.000000 -0.006000 -0.006000 0.000000 -0.006000 -0.006000 0.000000 -0.006000 -0.006000 0.000000 -0.006000 -0.006000 0.000000 -0.006000 -0.006000 0.000000 -0.006000 -0.006000 0.000000 -0.006000 0.000000 0.000000 -0.006000 0.000000 0.000000 -0.006000 0.006000 0.000000 -0.006000 0.006000 0.000000 -0.006000 0.006000 0.000000 -0.006000 0.006000 0.000000 -0.006000 0.006000 0.000000 -0.006000 0.006000 0.000000 -0.129112 0.006000 0.000000 -0.006000 0.006000 0.000000 -0.300821 0.009000 0.000000 -0.006000 -0.009000 0.000000 -0.006000 -0.006000 0.000000 -0.006000 -0.006000 0.000000 -0.006000 -0.006000 0.000000 -0.006000 -0.006000 0.000000 -0.006000 -0.006000 0.000000 -0.006000 -0.006000 0.000000 -0.006000 -0.006000 0.000000 -0.006000 -0.006000 0.000000 -0.006000 0.000000 0.000000 -0.006000 0.000000 0.000000 -0.006000 0.006000 0.000000 -0.000000 0.006000 0.000000 -0.006000 0.006000 0.000000 -0.006000 0.006000 0.000000 -0.006000 0.006000 0.000000 -0.006000 0.006000 0.000000 -0.114028 0.006000 0.000000 0.000000 0.006000 0.000000 -0.225068 0.009000 0.000000 -0.006000 -0.009000 0.000000 -0.006000 -0.006000 0.000000 -0.006000 -0.006000 0.000000 -0.006000 -0.006000 0.000000 -0.006000 -0.006000 0.000000 -0.006000 -0.006000 0.000000 -0.006000 -0.006000 0.000000 -0.006000 -0.006000 0.000000 -0.006000 -0.006000 0.000000 -0.006000 0.000000 0.000000 -0.006000 0.000000 0.000000 -0.006000 0.006000 0.000000 -0.000000 0.006000 0.000000 -0.006000 0.006000 0.000000 -0.006000 0.006000 0.000000 -0.006000 0.006000 0.000000 -0.006000 0.006000 0.000000 -0.102074 0.006000 0.000000 0.000000 0.006000 0.000000 -0.308829 0.009000 0.000000 -0.006000 -0.009000 0.000000 -0.006000 -0.006000 0.000000 -0.006000 -0.006000 0.000000 -0.006000 -0.006000 0.000000 -0.006000 -0.006000 0.000000 -0.006000 -0.006000 0.000000 -0.006000 -0.006000 0.000000 -0.006000 -0.006000 0.000000 -0.006000 -0.006000 0.000000 -0.006000 0.000000 0.000000 -0.006000 0.000000 0.000000 -0.006000 0.006000 0.000000 -0.000000 0.006000 0.000000 -0.006000 0.006000 0.000000 -0.006000 0.006000 0.000000 -0.006000 0.006000 0.000000 -0.006000 0.006000 0.000000 -0.077958 0.006000 0.000000 -0.000000 0.006000 0.000000 -0.359952 0.009000 0.000000 -0.006000 -0.009000 0.000000 -0.006000 -0.006000 0.000000 -0.006000 -0.006000 0.000000 -0.006000 -0.006000 0.000000 -0.006000 -0.006000 0.000000 -0.006000 -0.006000 0.000000 -0.006000 -0.006000 0.000000 -0.006000 -0.006000 0.000000 -0.006000 -0.006000 0.000000 -0.006000 0.000000 0.000000 -0.006000 0.000000 0.000000 -0.006000 0.006000 0.000000 -0.000000 0.006000 0.000000 -0.006000 0.006000 0.000000 -0.006000 0.006000 0.000000 -0.006000 0.006000 0.000000 -0.006000 0.006000 0.000000 -0.096181 0.006000 0.000000 0.000000 0.006000 0.000000 -0.217812 0.009000 0.000000 -0.006000 -0.009000 0.000000 -0.006000 -0.006000 0.000000 -0.006000 -0.006000 0.000000 -0.006000 -0.006000 0.000000 -0.000000 -0.006000 0.000000 -0.006000 -0.006000 0.000000 -0.006000 -0.006000 0.000000 -0.006000 -0.006000 0.000000 -0.006000 -0.006000 0.000000 -0.006000 0.000000 0.000000 -0.006000 0.000000 0.000000 -0.000000 0.006000 0.000000 -0.000000 0.006000 0.000000 -0.006000 0.006000 0.000000 -0.006000 0.006000 0.000000 -0.006000 0.006000 0.000000 -0.006000 0.006000 0.000000 -0.107905 0.006001 0.000000 0.000000 0.006000 0.000000 -0.207318 0.009023 0.000000 -0.006000 -0.009000 0.000000 -0.006000 -0.006000 0.000000 -0.006000 -0.006000 0.000000 -0.006000 -0.006000 0.000000 0.000000 -0.006000 0.000000 -0.006000 -0.006000 0.000000 -0.006000 -0.006000 0.000000 -0.006000 -0.006000 0.000000 -0.006000 -0.006000 0.000000 -0.006000 0.000000 0.000000 -0.000000 0.000000 0.000000 0.000000 0.006000 0.000000 -0.000000 0.006000 0.000000 -0.006000 0.006000 0.000000 -0.006000 0.006000 0.000000 -0.006000 0.006000 0.000000 -0.006000 0.006000 0.000000 -0.138323 0.005805 0.000000 0.006000 0.006000 0.000000 -0.227680 0.007887 0.000000 -0.006000 -0.009000 0.000000 -0.006000 -0.006000 0.000000 -0.006000 -0.006000 0.000000 -0.006000 -0.006000 0.000000 -0.000000 -0.006000 0.000000 -0.006000 -0.006000 0.000000 -0.006000 -0.006000 0.000000 0.000000 -0.006005 0.000000 -0.006000 -0.006000 0.000000 -0.006000 -0.000000 0.000000 -0.000000 -0.000000 0.000000 0.000006 0.000001 0.000000 0.005995 0.006020 0.000000 -0.006001 0.006000 0.000000 -0.006000 0.006000 0.000000 -0.006000 0.006000 0.000000 -0.005999 0.006000 0.000000 -0.129090 0.019373 0.000000 0.006014 0.012000 0.000000 -0.256389 0.033563 0.000000 -0.006000 -0.093001 0.000000 -0.006002 -0.174005 0.000000 -0.005996 -0.167940 0.000000 -0.006427 -0.074972 0.000000 0.000313 -0.119985 0.000000 0.000787 -0.056954 0.000000 -0.006761 -0.197948 0.000000 -0.000905 -0.005986 0.000000 0.001198 -0.023975 0.000000 -0.000454 -0.125817 0.000000 0.000364 0.006106 0.000000 0.000920 -0.143493 0.000000 0.005214 -0.174023 0.000000 -0.006251 -0.071994 0.000000 -0.005999 -0.173990 0.000000 -0.006002 -0.090013 0.000000 -0.003673 -0.123011 0.000000 -0.251102 -0.058184 0.000000 0.029703 -0.083570 0.000000 -0.454119 -0.025626 0.000000 -0.011585 -2.409035 0.000000 -0.023168 -2.538038 0.000000 -0.022345 -2.535138 0.000000 -0.006945 -2.487051 0.000000 -0.017033 -2.523115 0.000000 -0.015856 -2.502353 0.000000 0.022811 -2.470890 0.000000 -0.092523 -9.586366 0.000000 0.066052 -2.292651 0.000000 -0.229870 -9.338226 0.000000 0.187945 -1.957090 0.000000 0.218374 -8.913544 0.000000 -0.499473 -1.319414 0.000000 0.081618 -1.760394 0.000000 0.116357 -7.203494 0.000000 -0.350162 0.567751 0.000000 0.319595 0.174776 0.000000 0.094221 -3.574875 0.000000 -2.085101 -2.116313 0.000000 3.252259 -1.895796 0.000000 -0.011597 -2.520051 0.000000 -0.011475 -2.547125 0.000000 -0.018779 -2.496103 0.000000 -0.003895 -2.457041 0.000000 -0.015532 -2.454190 0.000000 -0.008848 -2.502333 0.000000 0.022358 -2.536590 0.000000 -0.054935 -9.720523 0.000000 0.070728 -2.319800 0.000000 -0.172771 -9.652158 0.000000 0.143066 -2.028482 0.000000 0.235900 -9.669192 0.000000 -0.417381 -1.822373 0.000000 0.107049 -9.369946 0.000000 0.022411 -1.420245 0.000000 -0.680547 -9.023909 0.000000 0.762183 -0.892602 0.000000 0.577872 -3.339989 0.000000 -3.572050 -4.760338 0.000000 6.199392 -3.020254 0.000000 -0.011630 -2.457039 0.000000 -0.011812 -2.487016 0.000000 -0.012414 -2.502053 0.000000 0.002267 -2.511103 0.000000 -0.015790 -2.529147 0.000000 0.003730 -2.412205 0.000000 0.015546 -2.503161 0.000000 -0.076278 -9.603349 0.000000 0.086212 -2.347622 0.000000 -0.178889 -9.635277 0.000000 0.127490 -2.001534 0.000000 0.255385 -9.650795 0.000000 -0.358357 -1.749169 0.000000 0.116874 -9.328908 0.000000 0.039391 -1.460371 0.000000 -0.622563 -8.909188 0.000000 0.783491 -0.770916 0.000000 0.493310 -1.874541 0.000000 -3.550820 -5.318696 0.000000 6.258323 -2.711292 0.000000 -0.011549 -2.469056 0.000000 -0.001934 -2.505063 0.000000 -0.008286 -2.418052 0.000000 -0.006429 -2.460098 0.000000 -0.017774 -2.574101 0.000000 0.000144 -2.550328 0.000000 0.021177 -2.536166 0.000000 -0.071235 -9.797459 0.000000 0.078891 -2.338945 0.000000 -0.147811 -9.641183 0.000000 0.086122 -1.962907 0.000000 0.307028 -9.626510 0.000000 -0.390187 -1.725032 0.000000 0.132244 -9.445944 0.000000 0.015671 -1.459399 0.000000 -0.627712 -9.002042 0.000000 0.783100 -0.680755 0.000000 0.406767 -1.837484 0.000000 -3.724112 -5.163609 0.000000 6.404485 -2.129815 0.000000 -0.005935 -2.550074 0.000000 -0.008119 -2.499022 0.000000 -0.006879 -2.457100 0.000000 0.017343 -2.463029 0.000000 -0.006068 -2.559119 0.000000 -0.001001 -2.472365 0.000000 0.032182 -2.464681 0.000000 -0.078215 -9.678577 0.000000 0.080522 -2.346965 0.000000 -0.185160 -9.756697 0.000000 0.063904 -1.964726 0.000000 0.333317 -9.607464 0.000000 -0.393816 -1.774919 0.000000 0.131926 -9.458323 0.000000 0.066837 -1.519895 0.000000 -0.608599 -9.117663 0.000000 0.635101 -0.645268 0.000000 0.429891 -1.858756 0.000000 -3.671563 -5.150549 0