<VTKFile type="UnstructuredGrid" version="0.1" byte_order="LittleEndian">
  <UnstructuredGrid>
    <Piece NumberOfPoints="2000" NumberOfCells="0">
      <Points>
        <DataArray name="Position" type="Float32" NumberOfComponents="3" format="ascii">
-0.001209 -0.000728 0.000000 -0.001209 0.999515 0.000000 -0.001209 1.999515 0.000000 -0.001209 2.999515 0.000000 -0.001527 3.999516 0.000000 -0.001661 4.999516 0.000000 -0.001646 5.999516 0.000000 -0.001682 6.999516 0.000000 -0.001200 7.999517 0.000000 -0.001681 9.000000 0.000000 -0.001196 10.000001 0.000000 -0.001195 11.000483 0.000000 -0.001197 12.000484 0.000000 -0.001197 13.000484 0.000000 -0.001197 14.000484 0.000000 -0.001191 15.000484 0.000000 -0.001191 16.000485 0.000000 -0.001191 17.000485 0.000000 -0.001191 18.000485 0.000000 -0.001191 19.000728 0.000000 0.999512 -0.000728 0.000000 0.999512 0.999515 0.000000 0.999512 1.999515 0.000000 0.999512 2.999515 0.000000 0.998950 3.999516 0.000000 0.998588 4.999516 0.000000 0.998658 5.999516 0.000000 0.999035 6.999516 0.000000 0.999507 7.999517 0.000000 0.999036 9.000000 0.000000 0.999505 10.000001 0.000000 0.999505 11.000483 0.000000 0.999506 12.000484 0.000000 0.999506 13.000484 0.000000 0.999506 14.000484 0.000000 0.999503 15.000484 0.000000 0.999503 16.000485 0.000000 0.999503 17.000485 0.000000 0.999503 18.000485 0.000000 0.999503 19.000728 0.000000 1.999515 -0.000728 0.000000 1.999515 0.999515 0.000000 1.999515 1.999515 0.000000 1.999515 2.999515 0.000000 1.999511 3.999516 0.000000 1.999027 4.999516 0.000000 1.999020 5.999516 0.000000 1.999039 6.999516 0.000000 1.999515 7.999517 0.000000 1.999039 9.000000 0.000000 1.999515 10.000001 0.000000 1.999515 11.000483 0.000000 1.999515 12.000484 0.000000 1.999515 13.000484 0.000000 1.999515 14.000484 0.000000 1.999515 15.000484 0.000000 1.999515 16.000485 0.000000 1.999515 17.000485 0.000000 1.999515 18.000485 0.000000 1.999515 19.000728 0.000000 2.999515 -0.000728 0.000000 2.999515 0.999515 0.000000 2.999515 1.999515 0.000000 2.999515 2.999515 0.000000 2.999514 3.999516 0.000000 2.999035 4.999516 0.000000 2.999037 5.999516 0.000000 2.999043 6.999516 0.000000 2.999515 7.999517 0.000000 2.999043 9.000000 0.000000 2.999515 10.000001 0.000000 2.999515 11.000483 0.000000 2.999515 12.000484 0.000000 2.999515 13.000484 0.000000 2.999515 14.000484 0.000000 2.999515 15.000484 0.000000 2.999515 16.000485 0.000000 2.999515 17.000485 0.000000 2.999515 18.000485 0.000000 2.999515 19.000728 0.000000 3.999515 -0.000728 0.000000 3.999515 0.999515 0.000000 3.999515 1.999515 0.000000 3.999515 2.999515 0.000000 3.999514 3.999516 0.000000 3.999037 4.999516 0.000000 3.999042 5.999516 0.000000 3.999509 6.999516 0.000000 3.999515 7.999517 0.000000 3.999509 9.000000 0.000000 3.999515 10.000001 0.000000 3.999515 11.000483 0.000000 3.999515 12.000484 0.000000 3.999515 13.000484 0.000000 3.999515 14.000484 0.000000 3.999515 15.000484 0.000000 3.999515 16.000485 0.000000 3.999515 17.000485 0.000000 3.999515 18.000485 0.000000 3.999515 19.000728 0.000000 4.999516 -0.002573 0.000000 4.999516 0.998534 0.000000 4.999516 1.998555 0.000000 4.999516 2.998561 0.000000 4.999515 3.999021 0.000000 4.999038 4.999033 0.000000 4.999073 5.999042 0.000000 4.999514 6.999054 0.000000 4.999515 7.999516 0.000000 4.999514 8.999516 0.000000 4.999515 9.999516 0.000000 4.999515 11.000001 0.000000 4.999516 12.000484 0.000000 4.999516 13.000484 0.000000 4.999516 14.000484 0.000000 4.999516 15.000484 0.000000 4.999516 16.000485 0.000000 4.999516 17.000485 0.000000 4.999516 18.000485 0.000000 4.999516 19.000728 0.000000 5.999517 -0.001202 0.000000 5.999517 0.999070 0.000000 5.999517 1.999508 0.000000 5.999517 2.999515 0.000000 5.999517 3.999515 0.000000 5.999044 4.999515 0.000000 5.999078 5.999516 0.000000 5.999514 6.999961 0.000000 5.999516 7.999999 0.000000 5.999514 9.000000 0.000000 5.999516 10.000001 0.000000 5.999515 11.000483 0.000000 5.999516 12.000484 0.000000 5.999516 13.000484 0.000000 5.999516 14.000484 0.000000 5.999516 15.000484 0.000000 5.999516 16.000485 0.000000 5.999516 17.000485 0.000000 5.999516 18.000485 0.000000 5.999516 19.000728 0.000000 6.999517 -0.000728 0.000000 6.999517 0.999515 0.000000 6.999517 1.999515 0.000000 6.999517 2.999515 0.000000 6.999517 3.999516 0.000000 6.999507 4.999516 0.000000 6.999507 5.999516 0.000000 6.999515 6.999517 0.000000 6.999516 7.999517 0.000000 6.999515 8.999999 0.000000 6.999516 10.000001 0.000000 6.999516 11.000483 0.000000 6.999516 12.000484 0.000000 6.999516 13.000484 0.000000 6.999516 14.000484 0.000000 6.999516 15.000484 0.000000 6.999516 16.000485 0.000000 6.999516 17.000485 0.000000 6.999516 18.000485 0.000000 6.999516 19.000728 0.000000 7.999517 -0.000728 0.000000 7.999517 0.999515 0.000000 7.999517 1.999515 0.000000 7.999517 2.999515 0.000000 7.999518 3.999516 0.000000 7.999513 4.999516 0.000000 7.999513 5.999516 0.000000 7.999516 6.999516 0.000000 7.999517 7.999517 0.000000 7.999516 8.999999 0.000000 7.999516 10.000001 0.000000 7.999516 11.000483 0.000000 7.999516 12.000484 0.000000 7.999516 13.000484 0.000000 7.999516 14.000484 0.000000 7.999516 15.000484 0.000000 7.999516 16.000485 0.000000 7.999516 17.000485 0.000000 7.999516 18.000485 0.000000 7.999516 19.000728 0.000000 8.999517 -0.000728 0.000000 8.999517 0.999515 0.000000 8.999517 1.999515 0.000000 8.999517 2.999515 0.000000 8.999518 3.999516 0.000000 8.999514 4.999516 0.000000 8.999515 5.999516 0.000000 8.999517 6.999516 0.000000 8.999517 7.999517 0.000000 8.999517 9.000000 0.000000 8.999517 10.000001 0.000000 8.999517 11.000483 0.000000 8.999517 12.000484 0.000000 8.999517 13.000484 0.000000 8.999517 14.000484 0.000000 8.999517 15.000484 0.000000 8.999517 16.000485 0.000000 8.999517 17.000485 0.000000 8.999517 18.000485 0.000000 8.999517 19.000728 0.000000 9.999518 -0.000728 0.000000 9.999518 0.999515 0.000000 9.999518 1.999515 0.000000 9.999518 2.999515 0.000000 9.999518 3.999516 0.000000 9.999516 4.999516 0.000000 9.999516 5.999516 0.000000 9.999518 6.999516 0.000000 9.999517 7.999517 0.000000 9.999517 9.000000 0.000000 9.999517 10.000001 0.000000 9.999517 11.000483 0.000000 9.999517 12.000484 0.000000 9.999517 13.000484 0.000000 9.999517 14.000484 0.000000 9.999517 15.000484 0.000000 9.999517 16.000485 0.000000 9.999517 17.000485 0.000000 9.999517 18.000485 0.000000 9.999517 19.000728 0.000000 10.999518 -0.000728 0.000000 10.999518 0.999515 0.000000 10.999518 1.999515 0.000000 10.999518 2.999515 0.000000 10.999519 3.999516 0.000000 10.999521 4.999516 0.000000 10.999521 5.999516 0.000000 10.999519 6.999516 0.000000 10.999518 7.999517 0.000000 10.999519 9.000000 0.000000 10.999517 10.000001 0.000000 10.999517 11.000483 0.000000 10.999517 12.000484 0.000000 10.999517 13.000484 0.000000 10.999517 14.000484 0.000000 10.999517 15.000484 0.000000 10.999517 16.000485 0.000000 10.999517 17.000485 0.000000 10.999517 18.000485 0.000000 10.999517 19.000728 0.000000 11.999518 -0.000728 0.000000 11.999518 0.999515 0.000000 11.999518 1.999515 0.000000 11.999518 2.999515 0.000000 11.999519 3.999516 0.000000 11.999521 4.999516 0.000000 11.999521 5.999516 0.000000 11.999519 6.999516 0.000000 11.999518 7.999517 0.000000 11.999519 9.000000 0.000000 11.999518 10.000001 0.000000 11.999518 11.000483 0.000000 11.999518 12.000484 0.000000 11.999518 13.000484 0.000000 11.999518 14.000484 0.000000 11.999518 15.000484 0.000000 11.999518 16.000485 0.000000 11.999518 17.000485 0.000000 11.999518 18.000485 0.000000 11.999518 19.000728 0.000000 12.999519 -0.000728 0.000000 12.999519 0.999515 0.000000 12.999519 1.999515 0.000000 12.999519 2.999515 0.000000 12.999519 3.999516 0.000000 12.999521 4.999516 0.000000 12.999521 5.999516 0.000000 12.999520 6.999516 0.000000 12.999519 7.999517 0.000000 12.999520 9.000000 0.000000 12.999518 10.000001 0.000000 12.999518 11.000483 0.000000 12.999518 12.000484 0.000000 12.999518 13.000484 0.000000 12.999518 14.000484 0.000000 12.999518 15.000484 0.000000 12.999518 16.000485 0.000000 12.999518 17.000485 0.000000 12.999518 18.000485 0.000000 12.999518 19.000728 0.000000 13.999519 -0.000728 0.000000 13.999519 0.999515 0.000000 13.999519 1.999515 0.000000 13.999519 2.999515 0.000000 13.999519 3.999516 0.000000 13.999521 4.999516 0.000000 13.999521 5.999516 0.000000 13.999520 6.999516 0.000000 13.999519 7.999517 0.000000 13.999520 9.000000 0.000000 13.999518 10.000001 0.000000 13.999518 11.000483 0.000000 13.999518 12.000484 0.000000 13.999518 13.000484 0.000000 13.999518 14.000484 0.000000 13.999518 15.000484 0.000000 13.999518 16.000485 0.000000 13.999518 17.000485 0.000000 13.999518 18.000485 0.000000 13.999518 19.000728 0.000000 14.999519 -0.000728 0.000000 14.999519 0.999515 0.000000 14.999519 1.999515 0.000000 14.999519 2.999515 0.000000 14.999520 3.999516 0.000000 14.999522 4.999516 0.000000 14.999522 5.999516 0.000000 14.999520 6.999516 0.000000 14.999519 7.999517 0.000000 14.999520 9.000000 0.000000 14.999519 10.000001 0.000000 14.999519 11.000483 0.000000 14.999519 12.000484 0.000000 14.999519 13.000484 0.000000 14.999519 14.000484 0.000000 14.999519 15.000484 0.000000 14.999519 16.000485 0.000000 14.999519 17.000485 0.000000 14.999519 18.000485 0.000000 14.999519 19.000728 0.000000 15.999519 -0.000728 0.000000 15.999519 0.999515 0.000000 15.999519 1.999515 0.000000 15.999519 2.999515 0.000000 15.999520 3.999516 0.000000 15.999522 4.999516 0.000000 15.999522 5.999516 0.000000 15.999521 6.999516 0.000000 15.999519 7.999517 0.000000 15.999521 9.000000 0.000000 15.999520 10.000001 0.000000 15.999520 11.000483 0.000000 15.999520 12.000484 0.000000 15.999520 13.000484 0.000000 15.999520 14.000484 0.000000 15.999519 15.000484 0.000000 15.999519 16.000485 0.000000 15.999519 17.000485 0.000000 15.999519 18.000485 0.000000 15.999519 19.000728 0.000000 16.999520 -0.000728 0.000000 16.999520 0.999515 0.000000 16.999520 1.999515 0.000000 16.999520 2.999515 0.000000 16.999520 3.999516 0.000000 16.999522 4.999516 0.000000 16.999522 5.999516 0.000000 16.999521 6.999516 0.000000 16.999520 7.999517
[...]
      <PointData Vectors="vector">
        <DataArray type="Float32" Name="Velocity" NumberOfComponents="3" format="ascii">
-0.015000 -0.009000 0.000000 -0.015000 -0.006000 0.000000 -0.015000 -0.006000 0.000000 -0.015000 -0.006000 0.000000 -0.021000 -0.006000 0.000000 -0.021000 -0.006000 0.000000 -0.021000 -0.006000 0.000000 -0.021000 -0.006000 0.000000 -0.015000 -0.006000 0.000000 -0.021000 0.000000 0.000000 -0.015000 0.000000 0.000000 -0.015000 0.006000 0.000000 -0.015000 0.006000 0.000000 -0.015000 0.006000 0.000000 -0.015000 0.006000 0.000000 -0.015000 0.006000 0.000000 -0.015000 0.006000 0.000000 -0.015000 0.006000 0.000000 -0.015000 0.006000 0.000000 -0.015000 0.009000 0.000000 -0.006000 -0.009000 0.000000 -0.006000 -0.006000 0.000000 -0.006000 -0.006000 0.000000 -0.006000 -0.006000 0.000000 -0.012000 -0.006000 0.000000 -0.018000 -0.006000 0.000000 -0.018000 -0.006000 0.000000 -0.012000 -0.006000 0.000000 -0.006000 -0.006000 0.000000 -0.012000 0.000000 0.000000 -0.006000 0.000000 0.000000 -0.006000 0.006000 0.000000 -0.006000 0.006000 0.000000 -0.006000 0.006000 0.000000 -0.006000 0.006000 0.000000 -0.006000 0.006000 0.000000 -0.006000 0.006000 0.000000 -0.006000 0.006000 0.000000 -0.006000 0.006000 0.000000 -0.006000 0.009000 0.000000 -0.006000 -0.009000 0.000000 -0.006000 -0.006000 0.000000 -0.006000 -0.006000 0.000000 -0.006000 -0.006000 0.000000 -0.006000 -0.006000 0.000000 -0.012000 -0.006000 0.000000 -0.012000 -0.006000 0.000000 -0.012000 -0.006000 0.000000 -0.006000 -0.006000 0.000000 -0.012000 0.000000 0.000000 -0.006000 0.000000 0.000000 -0.006000 0.006000 0.000000 -0.006000 0.006000 0.000000 -0.006000 0.006000 0.000000 -0.006000 0.006000 0.000000 -0.006000 0.006000 0.000000 -0.006000 0.006000 0.000000 -0.006000 0.006000 0.000000 -0.006000 0.006000 0.000000 -0.006000 0.009000 0.000000 -0.006000 -0.009000 0.000000 -0.006000 -0.006000 0.000000 -0.006000 -0.006000 0.000000 -0.006000 -0.006000 0.000000 -0.006000 -0.006000 0.000000 -0.012000 -0.006000 0.000000 -0.012000 -0.006000 0.000000 -0.012000 -0.006000 0.000000 -0.006000 -0.006000 0.000000 -0.012000 -0.000000 0.000000 -0.006000 -0.000000 0.000000 -0.006000 0.006000 0.000000 -0.006000 0.006000 0.000000 -0.006000 0.006000 0.000000 -0.006000 0.006000 0.000000 -0.006000 0.006000 0.000000 -0.006000 0.006000 0.000000 -0.006000 0.006000 0.000000 -0.006000 0.006000 0.000000 -0.006000 0.009000 0.000000 -0.006000 -0.009000 0.000000 -0.006000 -0.006000 0.000000 -0.006000 -0.006000 0.000000 -0.006000 -0.006000 0.000000 -0.006000 -0.005999 0.000000 -0.012000 -0.006000 0.000000 -0.012000 -0.005999 0.000000 -0.006000 -0.006000 0.000000 -0.006000 -0.006000 0.000000 -0.006000 0.000000 0.000000 -0.006000 0.000000 0.000000 -0.006000 0.006000 0.000000 -0.006000 0.006000 0.000000 -0.006000 0.006000 0.000000 -0.006000 0.006000 0.000000 -0.006000 0.006000 0.000000 -0.006000 0.006000 0.000000 -0.006000 0.006000 0.000000 -0.006000 0.006000 0.000000 -0.006000 0.009000 0.000000 -0.006000 -0.033000 0.000000 -0.006000 -0.018000 0.000000 -0.006000 -0.018000 0.000000 -0.006000 -0.018000 0.000000 -0.006000 -0.012001 0.000000 -0.012001 -0.012001 0.000000 -0.012000 -0.012001 0.000000 -0.006000 -0.012000 0.000000 -0.006000 -0.006000 0.000000 -0.006000 -0.006000 0.000000 -0.006000 -0.006000 0.000000 -0.006000 -0.000000 0.000000 -0.006000 0.006000 0.000000 -0.006000 0.006000 0.000000 -0.006000 0.006000 0.000000 -0.006000 0.006000 0.000000 -0.006000 0.006000 0.000000 -0.006000 0.006000 0.000000 -0.006000 0.006000 0.000000 -0.006000 0.009000 0.000000 -0.006000 -0.015000 0.000000 -0.006000 -0.012000 0.000000 -0.006000 -0.006000 0.000000 -0.006000 -0.006000 0.000000 -0.006000 -0.005999 0.000000 -0.012000 -0.006000 0.000000 -0.012000 -0.005999 0.000000 -0.006000 -0.000000 0.000000 -0.006000 0.000000 0.000000 -0.006000 0.000000 0.000000 -0.006000 0.000000 0.000000 -0.006000 0.006000 0.000000 -0.006000 0.006000 0.000000 -0.006000 0.006000 0.000000 -0.006000 0.006000 0.000000 -0.006000 0.006000 0.000000 -0.006000 0.006000 0.000000 -0.006000 0.006000 0.000000 -0.006000 0.006000 0.000000 -0.006000 0.009000 0.000000 -0.006000 -0.009000 0.000000 -0.006000 -0.006000 0.000000 -0.006000 -0.006000 0.000000 -0.006000 -0.006000 0.000000 -0.006000 -0.006000 0.000000 -0.006000 -0.006000 0.000000 -0.006000 -0.006000 0.000000 -0.006000 -0.006000 0.000000 -0.006000 -0.006000 0.000000 -0.006000 -0.000000 0.000000 -0.006000 0.000000 0.000000 -0.006000 0.006000 0.000000 -0.006000 0.006000 0.000000 -0.006000 0.006000 0.000000 -0.006000 0.006000 0.000000 -0.006000 0.006000 0.000000 -0.006000 0.006000 0.000000 -0.006000 0.006000 0.000000 -0.006000 0.006000 0.000000 -0.006000 0.009000 0.000000 -0.006000 -0.009000 0.000000 -0.006000 -0.006000 0.000000 -0.006000 -0.006000 0.000000 -0.006000 -0.006000 0.000000 -0.006000 -0.006000 0.000000 -0.006000 -0.006000 0.000000 -0.006000 -0.006000 0.000000 -0.006000 -0.006000 0.000000 -0.006000 -0.006000 0.000000 -0.006000 0.000000 0.000000 -0.006000 0.000000 0.000000 -0.006000 0.006000 0.000000 -0.006000 0.006000 0.000000 -0.006000 0.006000 0.000000 -0.006000 0.006000 0.000000 -0.006000 0.006000 0.000000 -0.006000 0.006000 0.000000 -0.006000 0.006000 0.000000 -0.006000 0.006000 0.000000 -0.006000 0.009000 0.000000 -0.006000 -0.009000 0.000000 -0.006000 -0.006000 0.000000 -0.006000 -0.006000 0.000000 -0.006000 -0.006000 0.000000 -0.006000 -0.006000 0.000000 -0.006000 -0.006000 0.000000 -0.006000 -0.006000 0.000000 -0.006000 -0.006000 0.000000 -0.006000 -0.006000 0.000000 -0.006000 0.000000 0.000000 -0.006000 0.000000 0.000000 -0.006000 0.006000 0.000000 -0.006000 0.006000 0.000000 -0.006000 0.006000 0.000000 -0.006000 0.006000 0.000000 -0.006000 0.006000 0.000000 -0.006000 0.006000 0.000000 -0.006000 0.006000 0.000000 -0.006000 0.006000 0.000000 -0.006000 0.009000 0.000000 -0.006000 -0.009000 0.000000 -0.006000 -0.006000 0.000000 -0.006000 -0.006000 0.000000 -0.006000 -0.006000 0.000000 -0.006000 -0.006000 0.000000 -0.006000 -0.006000 0.000000 -0.006000 -0.006000 0.000000 -0.006000 -0.006000 0.000000 -0.006000 -0.006000 0.000000 -0.006000 -0.000000 0.000000 -0.006000 0.000000 0.000000 -0.006000 0.006000 0.000000 -0.006000 0.006000 0.000000 -0.006000 0.006000 0.000000 -0.006000 0.006000 0.000000 -0.006000 0.006000 0.000000 -0.006000 0.006000 0.000000 -0.006000 0.006000 0.000000 -0.006000 0.006000 0.000000 -0.006000 0.009000 0.000000 -0.006000 -0.009000 0.000000 -0.006000 -0.006000 0.000000 -0.006000 -0.006000 0.000000 -0.006000 -0.006000 0.000000 -0.006000 -0.006000 0.000000 -0.006000 -0.006000 0.000000 -0.006000 -0.006000 0.000000 -0.006000 -0.006000 0.000000 -0.006000 -0.006000 0.000000 -0.006000 0.000000 0.000000 -0.006000 0.000000 0.000000 -0.006000 0.006000 0.000000 -0.006000 0.006000 0.000000 -0.006000 0.006000 0.000000 -0.006000 0.006000 0.000000 -0.006000 0.006000 0.000000 -0.006000 0.006000 0.000000 -0.006000 0.006000 0.000000 -0.006000 0.006000 0.000000 -0.006000 0.009000 0.000000 -0.006000 -0.009000 0.000000 -0.006000 -0.006000 0.000000 -0.006000 -0.006000 0.000000 -0.006000 -0.006000 0.000000 -0.006000 -0.006000 0.000000 -0.006000 -0.006000 0.000000 -0.006000 -0.006000 0.000000 -0.006000 -0.006000 0.000000 -0.006000 -0.006000 0.000000 -0.006000 0.000000 0.000000 -0.006000 0.000000 0.000000 -0.006000 0.006000 0.000000 -0.006000 0.006000 0.000000 -0.006000 0.006000 0.000000 -0.006000 0.006000 0.000000 -0.006000 0.006000 0.000000 -0.006000 0.006000 0.000000 -0.006000 0.006000 0.000000 -0.006000 0.006000 0.000000 -0.006000 0.009000 0.000000 -0.006000 -0.009000 0.000000 -0.006000 -0.006000 0.000000 -0.006000 -0.006000 0.000000 -0.006000 -0.006000 0.000000 -0.006000 -0.006000 0.000000 -0.006000 -0.006000 0.000000 -0.006000 -0.006000 0.000000 -0.006000 -0.006000 0.000000 -0.006000 -0.006000 0.000000 -0.006000 0.000000 0.000000 -0.006000 0.000000 0.000000 -0.006000 0.006000 0.000000 -0.006000 0.006000 0.000000 -0.006000 0.006000 0.000000 -0.006000 0.006000 0.000000 -0.006000 0.006000 0.000000 -0.006000 0.006000 0.000000 -0.006000 0.006000 0.000000 -0.006000 0.006000 0.000000 -0.006000 0.009000 0.000000 -0.006000 -0.009000 0.000000 -0.006000 -0.006000 0.000000 -0.006000 -0.006000 0.000000 -0.006000 -0.006000 0.000000 -0.006000 -0.006000 0.000000 -0.006000 -0.006000 0.000000 -0.006000 -0.006000 0.000000 -0.006000 -0.006000 0.000000 -0.006000 -0.006000 0.000000 -0.006000 0.000000 0.000000 -0.006000 0.000000 0.000000 -0.006000 0.006000 0.000000 -0.006000 0.006000 0.000000 -0.006000 0.006000 0.000000 -0.006000 0.006000 0.000000 -0.006000 0.006000 0.000000 -0.006000 0.006000 0.000000 -0.006000 0.006000 0.000000 -0.006000 0.006000 0.000000 -0.006000 0.009000 0.000000 -0.006000 -0.009000 0.000000 -0.006000 -0.006000 0.000000 -0.006000 -0.006000 0.000000 -0.006000 -0.006000 0.000000 -0.006000 -0.006000 0.000000 -0.006000 -0.006000 0.000000 -0.006000 -0.006000 0.000000 -0.006000 -0.006000 0.000000 -0.006000 -0.006000 0.000000 -0.006000 0.000000 0.000000 -0.006000 0.000000 0.000000 -0.006000 0.006000 0.000000 -0.006000 0.006000 0.000000 -0.006000 0.006000 0.000000 -0.006000 0.006000 0.000000 -0.006000 0.006000 0.000000 -0.006000 0.006000 0.000000 -0.006000 0.006000 0.000000 -0.006000 0.006000 0.000000 -0.006000 0.009000 0.000000 -0.006000 -0.009000 0.000000 -0.006000 -0.006000 0.000000 -0.006000 -0.006000 0.000000 -0.006000 -0.006000 0.000000 -0.006000 -0.006000 0.000000 -0.006000 -0.006000 0.000000 -0.006000 -0.006000 0.000000 -0.006000 -0.006000 0.000000 -0.006000 -0.006000 0.000000 -0.006000 0.000000 0.000000 -0.006000 0.000000 0.000000 -0.006000 0.006000 0.000000 -0.006000 0.006000 0.000000 -0.006000 0.006000 0.000000 -0.006000 0.006000 0.000000 -0.006000 0.006000 0.000000 -0.006000 0.006000 0.000000 -0.006000 0.006000 0.000000 -0.006000 0.006000 0.000000 -0.006000 0.009000 0.000000 -0.006000 -0.009000 0.000000 -0.006000 -0.006000 0.000000 -0.006000 -0.006000 0.000000 -0.006000 -0.006000 0.000000 -0.006000 -0.006000 0.000000 -0.006000 -0.006000 0.000000 -0.006000 -0.006000 0.000000 -0.006000 -0.006000 0.000000 -0.006000 -0.006000 0.000000 -0.006000 0.000000 0.000000 -0.006000 0.000000 0.000000 -0.006000 0.006000 0.000000 -0.006000 0.006000 0.000000 -0.006000 0.006000 0.000000 -0.006000 0.006000 0.000000 -0.006000 0.006000 0.000000 -0.006000 0.006000 0.000000 -0.006000 0.006000 0.000000 -0.006000 0.006000 0.000000 -0.006000 0.009000 0.000000 -0.006000 -0.009000 0.000000 -0.006000 -0.006000 0.000000 -0.006000 -0.006000 0.000000 -0.006000 -0.006000 0.000000 -0.006000 -0.006000 0.000000 -0.006000 -0.006000 0.000000 -0.006000 -0.006000 0.000000 -0.006000 -0.006000 0.000000 -0.006000 -0.006000 0.000000 -0.006000 0.000000 0.000000 -0.006000 0.000000 0.000000 -0.006000 0.006000 0.000000 -0.006000 0.006000 0.000000 -0.006000 0.006000 0.000000 -0.006000 0.006000 0.000000 -0.006000 0.006000 0.000000 -0.006000 0.006000 0.000000 -0.006000 0.006000 0.000000 -0.006000 0.006000 0.000000 -0.006000 0.009000 0.000000 -0.006000 -0.009000 0.000000 -0.006000 -0.006000 0.000000 -0.006000 -0.006000 0.000000 -0.006000 -0.006000 0.000000 -0.006000 -0.006000 0.000000 -0.006000 -0.006000 0.000000 -0.006000 -0.006000 0.000000 -0.006000 -0.006000 0.000000 -0.006000 -0.006000 0.000000 -0.006000 0.000000 0.000000 -0.006000 0.000000 0.000000 -0.006000 0.006000 0.000000 -0.006000 0.006000 0.000000 -0.006000 0.006000 0.000000 -0.006000 0.006000 0.000000 -0.006000 0.006000 0.000000 -0.006000 0.006000 0.000000 -0.006000 0.006000 0.000000 -0.006000 0.006000 0.000000 -0.006000 0.009000 0.000000 -0.006000 -0.009000 0.000000 -0.006000 -0.006000 0.000000 -0.006000 -0.006000 0.000000 -0.006000 -0.006000 0.000000 -0.006000 -0.006000 0.000000 -0.006000 -0.006000 0.000000 -0.006000 -0.006000 0.000000 -0.006000 -0.006000 0.000000 -0.006000 -0.006000 0.000000 -0.006000 0.000000 0.000000 -0.006000 0.000000 0.000000 -0.006000 0.006000 0.000000 -0.006000 0.006000 0.000000 -0.006000 0.006000 0.000000 -0.006000 0.006000 0.000000 -0.006000 0.006000 0.000000 -0.006000 0.006000 0.000000 -0.006000 0.006000 0.000000 -0.006000 0.006000 0.000000 -0.006000 0.009000 0.000000 -0.006000 -0.009000 0.000000 -0.006000 -0.006000 0.000000 -0.006000 -0.006000 0.000000 -0.006000 -0.006000 0.000000 -0.006000 -0.006000 0.000000 -0.006000 -0.006000 0.000000 -0.006000 -0.006000 0.000000 -0.006000 -0.006000 0.000000 -0.006000 -0.006000 0.000000 -0.006000 0.000000 0.000000 -0.006000 0.000000 0.000000 -0.006000 0.006000 0.000000 -0.006000 0.006000 0.000000 -0.006000 0.006000 0.000000 -0.006000 0.006000 0.000000 -0.006000 0.006000 0.000000 -0.006000 0.006000 0.000000 -0.006000 0.006000 0.000000 -0.006000 0.006000 0.000000 -0.006000 0.009000 0.000000 -0.006000 -0.009000 0.000000 -0.006000 -0.006000 0.000000 -0.006000 -0.006000 0.000000 -0.006000 -0.006000 0.000000 -0.006000 -0.006000 0.000000 -0.006000 -0.006000 0.000000 -0.006000 -0.006000 0.000000 -0.006000 -0.006000 0.000000 -0.006000 -0.006000 0.000000 -0.006000 0.000000 0.000000 -0.006000 0.000000 0.000000 -0.006000 0.006000 0.000000 -0.006000 0.006000 0.000000 -0.006000 0.006000 0.000000 -0.006000 0.006000 0.000000 -0.006000 0.006000 0.000000 -0.006000 0.006000 0.000000 -0.006000 0.006000 0.000000 -0.006000 0.006000 0.000000 -0.006000 0.009000 0.000000 -0.006000 -0.009000 0.000000 -0.006000 -0.006000 0.000000 -0.006000 -0.006000 0.000000 -0.006000 -0.006000 0.000000 -0.006000 -0.006000 0.000000 -0.006000 -0.006000 0.000000 -0.006000 -0.006000 0.000000 -0.006000 -0.006000 0.000000 -0.006000 -0.006000 0.000000 -0.006000 0.000000 0.000000 -0.006000 0.000000 0.000000 -0.006000 0.006000 0.000000 -0.006000 0.006000 0.000000 -0.006000 0.006000 0.000000 -0.006000 0.006000 0.000000 -0.006000 0.006000 0.000000 -0.006000 0.006000 0.000000 -0.006000 0.006000 0.000000 -0.006000 0.006000 0.000000 -0.006000 0.009000 0.000000 -0.006000 -0.009000 0.000000 -0.006000 -0.006000 0.000000 -0.006000 -0.006000 0.000000 -0.006000 -0.006000 0.000000 -0.006000 -0.006000 0.000000 -0.006000 -0.006000 0.000000 -0.006000 -0.006000 0.000000 -0.006000 -0.006000 0.000000 -0.006000 -0.006000 0.000000 -0.006000 0.000000 0.000000 -0.006000 0.000000 0.000000 -0.006000 0.006000 0.000000 -0.006000 0.006000 0.000000 -0.006000 0.006000 0.000000 -0.006000 0.006000 0.000000 -0.006000 0.006000 0.000000 -0.006000 0.006000 0.000000 -0.006000 0.006000 0.000000 -0.006000 0.006000 0.000000 -0.006000 0.009000 0.000000 -0.006000 -0.009000 0.000000 -0.006000 -0.006000 0.000000 -0.006000 -0.006000 0.000000 -0.006000 -0.006000 0.000000 -0.006000 -0.006000 0.000000 -0.006000 -0.006000 0.000000 -0.006000 -0.006000 0.000000 -0.006000 -0.006000 0.000000 -0.006000 -0.006000 0.000000 -0.006000 0.000000 0.000000 -0.006000 0.000000 0.000000 -0.006000 0.006000 0.000000 -0.006000 0.006000 0.000000 -0.006000 0.006000 0.000000 -0.006000 0.006000 0.000000 -0.006000 0.006000 0.000000 -0.006000 0.006000 0.000000 -0.006000 0.006000 0.000000 -0.006000 0.006000 0.000000 -0.006000 0.009000 0.000000 -0.006000 -0.009000 0.000000 -0.006000 -0.006000 0.000000 -0.006000 -0.006000 0.000000 -0.006000 -0.006000 0.000000 -0.006000 -0.006000 0.000000 -0.006000 -0.006000 0.000000 -0.006000 -0.006000 0.000000 -0.006000 -0.006000 0.000000 -0.006000 -0.006000 0.000000 -0.006000 0.000000 0.000000 -0.006000 0.000000 0.000000 -0.006000 0.006000 0.000000 -0.006000 0.006000 0.000000 -0.006000 0.006000 0.000000 -0.006000 0.006000 0.000000 -0.006000 0.006000 0.000000 -0.006000 0.006000 0.000000 -0.006000 0.006000 0.000000 -0.006000 0.006000 0.000000 -0.006000 0.009000 0.000000 -0.006000 -0.009000 0.000000 -0.006000 -0.006000 0.000000 -0.006000 -0.006000 0.000000 -0.006000 -0.006000 0.000000 -0.006000 -0.006000 0.000000 -0.006000 -0.006000 0.000000 -0.006000 -0.006000 0.000000 -0.006000 -0.006000 0.000000 -0.006000 -0.006000 0.000000 -0.006000 0.000000 0.000000 -0.006000 0.000000 0.000000 -0.006000 0.006000 0.000000 -0.006000 0.006000 0.000000 -0.006000 0.006000 0.000000 -0.006000 0.006000 0.000000 -0.006000 0.006000 0.000000 -0.006000 0.006000 0.000000 -0.006000 0.006000 0.000000 -0.006000 0.006000 0.000000 -0.006000 0.009000 0.000000 -0.006000 -0.009000 0.000000 -0.006000 -0.006000 0.000000 -0.006000 -0.006000 0.000000 -0.006000 -0.006000 0.000000 -0.006000 -0.006000 0.000000 -0.006000 -0.006000 0.000000 -0.006000 -0.006000 0.000000 -0.006000 -0.006000 0.000000 -0.006000 -0.006000 0.000000 -0.006000 0.000000 0.000000 -0.006000 0.000000 0.000000 -0.006000 0.006000 0.000000 -0.006000 0.006000 0.000000 -0.006000 0.006000 0.000000 -0.006000 0.006000 0.000000 -0.006000 0.006000 0.000000 -0.006000 0.006000 0.000000 -0.006000 0.006000 0.000000 -0.006000 0.006000 0.000000 -0.006000 0.009000 0.000000 -0.006000 -0.009000 0.000000 -0.006000 -0.006000 0.000000 -0.006000 -0.006000 0.000000 -0.006000 -0.006000 0.000000 -0.006000 -0.006000 0.000000 -0.006000 -0.006000 0.000000 -0.006000 -0.006000 0.000000 -0.006000 -0.006000 0.000000 -0.006000 -0.006000 0.000000 -0.006000 0.000000 0.000000 -0.006000 0.000000 0.000000 -0.006000 0.006000 0.000000 -0.006000 0.006000 0.000000 -0.006000 0.006000 0.000000 -0.006000 0.006000 0.000000 -0.006000 0.006000 0.000000 -0.006000 0.006000 0.000000 -0.006000 0.006000 0.000000 -0.006000 0.006000 0.000000 -0.006000 0.009000 0.000000 -0.006000 -0.009000 0.000000 -0.006000 -0.006000 0.000000 -0.006000 -0.006000 0.000000 -0.006000 -0.006000 0.000000 -0.006000 -0.006000 0.000000 -0.006000 -0.006000 0.000000 -0.006000 -0.006000 0.000000 -0.006000 -0.006000 0.000000 -0.006000 -0.006000 0.000000 -0.006000 0.000000 0.000000 -0.006000 0.000000 0.000000 -0.006000 0.006000 0.000000 -0.006000 0.006000 0.000000 -0.006000 0.006000 0.000000 -0.006000 0.006000 0.000000 -0.006000 0.006000 0.000000 -0.006000 0.006000 0.000000 -0.006000 0.006000 0.000000 -0.006000 0.006000 0.000000 -0.006000 0.009000 0.000000 -0.006000 -0.009000 0.000000 -0.006000 -0.006000 0.000000 -0.006000 -0.006000 0.000000 -0.006000 -0.006000 0.000000 -0.006000 -0.006000 0.000000 -0.006000 -0.006000 0.000000 -0.006000 -0.006000 0.000000 -0.006000 -0.006000 0.000000 -0.006000 -0.006000 0.000000 -0.006000 0.000000 0.000000 -0.006000 0.000000 0.000000 -0.006000 0.006000 0.000000 -0.006000 0.006000 0.000000 -0.006000 0.006000 0.000000 -0.006000 0.006000 0.000000 -0.006000 0.006000 0.000000 -0.006000 0.006000 0.000000 -0.006000 0.006000 0.000000 -0.006000 0.006000 0.000000 -0.006000 0.009000 0.000000 -0.006000 -0.009000 0.000000 -0.006000 -0.006000 0.000000 -0.006000 -0.006000 0.000000 -0.006000 -0.006000 0.000000 -0.006000 -0.006000 0.000000 -0.006000 -0.006000 0.000000 -0.006000 -0.006000 0.000000 -0.006000 -0.006000 0.000000 -0.006000 -0.006000 0.000000 -0.006000 0.000000 0.000000 -0.006000 0.000000 0.000000 -0.006000 0.006000 0.000000 -0.006000 0.006000 0.000000 -0.006000 0.006000 0.000000 -0.006000 0.006000 0.000000 -0.006000 0.006000 0.000000 -0.006000 0.006000 0.000000 -0.006000 0.006000 0.000000 -0.006000 0.006000 0.000000 -0.006000 0.009000 0.000000 -0.006000 -0.009000 0.000000 -0.006000 -0.006000 0.000000 -0.006000 -0.006000 0.000000 -0.006000 -0.006000 0.000000 -0.006000 -0.006000 0.000000 0.000000 -0.006000 0.000000 0.000000 -0.006000 0.000000 -0.006000 -0.006000 0.000000 -0.006000 -0.006000 0.000000 -0.006000 0.000000 0.000000 -0.006000 0.000000 0.000000 -0.006000 0.006000 0.000000 -0.006000 0.006000 0.000000 -0.006000 0.006000 0.000000 -0.006000 0.006000 0.000000 -0.006000 0.006000 0.000000 -0.006000 0.006000 0.000000 -0.006000 0.006000 0.000000 -0.006000 0.006000 0.000000 -0.006000 0.009000 0.000000 -0.006000 -0.009000 0.000000 -0.006000 -0.006000 0.000000 -0.006000 -0.006000 0.000000 -0.006000 -0.006000 0.000000 -0.006000 -0.006000 0.000000 0.000000 -0.006000 0.000000 0.000000 -0.006000 0.000000 -0.006000 -0.006000 0.000000 -0.006000 -0.006000 0.000000 -0.006000 0.000000 0.000000 -0.006000 0.000000 0.000000 -0.006000 0.006000 0.000000 -0.006000 0.006000 0.000000 -0.006000 0.006000 0.000000 -0.006000 0.006000 0.000000 -0.006000 0.006000 0.000000 -0.006000 0.006000 0.000000 -0.006000 0.006000 0.000000 -0.006000 0.006