<VTKFile type="UnstructuredGrid" version="0.1" byte_order="LittleEndian">
  <UnstructuredGrid>
    <Piece NumberOfPoints="2000" NumberOfCells="0">
      <Points>
        <DataArray name="Position" type="Float32" NumberOfComponents="3" format="ascii">
-0.001681 -0.001012 0.000000 -0.001681 0.999326 0.000000 -0.001681 1.999326 0.000000 -0.001681 2.999326 0.000000 -0.002188 3.999327 0.000000 -0.002322 4.999327 0.000000 -0.002308 5.999327 0.000000 -0.002343 6.999327 0.000000 -0.001672 7.999328 0.000000 -0.002342 9.000000 0.000000 -0.001668 10.000001 0.000000 -0.001667 11.000672 0.000000 -0.001669 12.000673 0.000000 -0.001669 13.000673 0.000000 -0.001669 14.000673 0.000000 -0.001663 15.000673 0.000000 -0.001663 16.000674 0.000000 -0.001663 17.000674 0.000000 -0.001663 18.000674 0.000000 -0.001663 19.001012 0.000000 0.999323 -0.001012 0.000000 0.999323 0.999326 0.000000 0.999323 1.999326 0.000000 0.999323 2.999326 0.000000 0.998572 3.999327 0.000000 0.998021 4.999327 0.000000 0.998091 5.999327 0.000000 0.998657 6.999327 0.000000 0.999318 7.999328 0.000000 0.998658 9.000000 0.000000 0.999316 10.000001 0.000000 0.999316 11.000672 0.000000 0.999317 12.000673 0.000000 0.999317 13.000673 0.000000 0.999317 14.000673 0.000000 0.999314 15.000673 0.000000 0.999314 16.000674 0.000000 0.999314 17.000674 0.000000 0.999314 18.000674 0.000000 0.999241 19.001012 0.000000 1.999326 -0.001012 0.000000 1.999326 0.999326 0.000000 1.999326 1.999326 0.000000 1.999326 2.999326 0.000000 1.999322 3.999327 0.000000 1.998649 4.999327 0.000000 1.998642 5.999327 0.000000 1.998661 6.999327 0.000000 1.999326 7.999328 0.000000 1.998661 9.000000 0.000000 1.999326 10.000001 0.000000 1.999326 11.000672 0.000000 1.999326 12.000673 0.000000 1.999326 13.000673 0.000000 1.999326 14.000673 0.000000 1.999326 15.000673 0.000000 1.999326 16.000674 0.000000 1.999326 17.000674 0.000000 1.999326 18.000674 0.000000 1.999255 19.001012 0.000000 2.999326 -0.001012 0.000000 2.999326 0.999326 0.000000 2.999326 1.999326 0.000000 2.999326 2.999326 0.000000 2.999325 3.999327 0.000000 2.998657 4.999327 0.000000 2.998659 5.999327 0.000000 2.998665 6.999327 0.000000 2.999326 7.999328 0.000000 2.998665 9.000000 0.000000 2.999326 10.000001 0.000000 2.999326 11.000672 0.000000 2.999326 12.000673 0.000000 2.999326 13.000673 0.000000 2.999326 14.000673 0.000000 2.999326 15.000673 0.000000 2.999326 16.000674 0.000000 2.999326 17.000674 0.000000 2.999326 18.000674 0.000000 2.999266 19.001012 0.000000 3.999326 -0.001012 0.000000 3.999326 0.999326 0.000000 3.999326 1.999326 0.000000 3.999326 2.999326 0.000000 3.999325 3.999327 0.000000 3.998659 4.999327 0.000000 3.998664 5.999327 0.000000 3.999320 6.999327 0.000000 3.999326 7.999328 0.000000 3.999320 9.000000 0.000000 3.999326 10.000001 0.000000 3.999326 11.000672 0.000000 3.999326 12.000673 0.000000 3.999326 13.000673 0.000000 3.999326 14.000673 0.000000 3.999326 15.000673 0.000000 3.999326 16.000674 0.000000 3.999326 17.000674 0.000000 3.999326 18.000674 0.000000 3.999277 19.001012 0.000000 4.999327 -0.003613 0.000000 4.999327 0.997967 0.000000 4.999327 1.997988 0.000000 4.999327 2.997994 0.000000 4.999326 3.998643 0.000000 4.998660 4.998655 0.000000 4.998695 5.998664 0.000000 4.999325 6.998676 0.000000 4.999326 7.999327 0.000000 4.999325 8.999327 0.000000 4.999326 9.999327 0.000000 4.999326 11.000001 0.000000 4.999327 12.000673 0.000000 4.999327 13.000673 0.000000 4.999327 14.000673 0.000000 4.999327 15.000673 0.000000 4.999327 16.000674 0.000000 4.999327 17.000674 0.000000 4.999327 18.000674 0.000000 4.999290 19.001012 0.000000 5.999328 -0.001674 0.000000 5.999328 0.998692 0.000000 5.999328 1.999319 0.000000 5.999328 2.999326 0.000000 5.999328 3.999326 0.000000 5.998666 4.999326 0.000000 5.998700 5.999327 0.000000 5.999325 6.999961 0.000000 5.999327 7.999999 0.000000 5.999325 9.000000 0.000000 5.999327 10.000001 0.000000 5.999326 11.000672 0.000000 5.999327 12.000673 0.000000 5.999327 13.000673 0.000000 5.999327 14.000673 0.000000 5.999327 15.000673 0.000000 5.999327 16.000674 0.000000 5.999327 17.000674 0.000000 5.999327 18.000674 0.000000 5.999292 19.001012 0.000000 6.999328 -0.001012 0.000000 6.999328 0.999326 0.000000 6.999328 1.999326 0.000000 6.999328 2.999326 0.000000 6.999328 3.999327 0.000000 6.999318 4.999327 0.000000 6.999318 5.999327 0.000000 6.999326 6.999328 0.000000 6.999327 7.999328 0.000000 6.999326 8.999999 0.000000 6.999327 10.000001 0.000000 6.999327 11.000672 0.000000 6.999327 12.000673 0.000000 6.999327 13.000673 0.000000 6.999327 14.000673 0.000000 6.999327 15.000673 0.000000 6.999327 16.000674 0.000000 6.999327 17.000674 0.000000 6.999327 18.000674 0.000000 6.999295 19.001012 0.000000 7.999328 -0.001012 0.000000 7.999328 0.999326 0.000000 7.999328 1.999326 0.000000 7.999328 2.999326 0.000000 7.999329 3.999327 0.000000 7.999324 4.999327 0.000000 7.999324 5.999327 0.000000 7.999327 6.999327 0.000000 7.999328 7.999328 0.000000 7.999327 8.999999 0.000000 7.999327 10.000001 0.000000 7.999327 11.000672 0.000000 7.999327 12.000673 0.000000 7.999327 13.000673 0.000000 7.999327 14.000673 0.000000 7.999327 15.000673 0.000000 7.999327 16.000674 0.000000 7.999327 17.000674 0.000000 7.999327 18.000674 0.000000 7.999297 19.001012 0.000000 8.999328 -0.001012 0.000000 8.999328 0.999326 0.000000 8.999328 1.999326 0.000000 8.999328 2.999326 0.000000 8.999329 3.999327 0.000000 8.999325 4.999327 0.000000 8.999326 5.999327 0.000000 8.999328 6.999327 0.000000 8.999328 7.999328 0.000000 8.999328 9.000000 0.000000 8.999328 10.000001 0.000000 8.999328 11.000672 0.000000 8.999328 12.000673 0.000000 8.999328 13.000673 0.000000 8.999328 14.000673 0.000000 8.999328 15.000673 0.000000 8.999328 16.000674 0.000000 8.999328 17.000674 0.000000 8.999328 18.000674 0.000000 8.999301 19.001012 0.000000 9.999329 -0.001012 0.000000 9.999329 0.999326 0.000000 9.999329 1.999326 0.000000 9.999329 2.999326 0.000000 9.999329 3.999327 0.000000 9.999327 4.999327 0.000000 9.999327 5.999327 0.000000 9.999329 6.999327 0.000000 9.999328 7.999328 0.000000 9.999328 9.000000 0.000000 9.999328 10.000001 0.000000 9.999328 11.000672 0.000000 9.999328 12.000673 0.000000 9.999328 13.000673 0.000000 9.999328 14.000673 0.000000 9.999328 15.000673 0.000000 9.999328 16.000674 0.000000 9.999328 17.000674 0.000000 9.999328 18.000674 0.000000 9.999302 19.001012 0.000000 10.999329 -0.001012 0.000000 10.999329 0.999326 0.000000 10.999329 1.999326 0.000000 10.999329 2.999326 0.000000 10.999330 3.999327 0.000000 10.999332 4.999327 0.000000 10.999332 5.999327 0.000000 10.999330 6.999327 0.000000 10.999329 7.999328 0.000000 10.999330 9.000000 0.000000 10.999328 10.000001 0.000000 10.999328 11.000672 0.000000 10.999328 12.000673 0.000000 10.999328 13.000673 0.000000 10.999328 14.000673 0.000000 10.999328 15.000673 0.000000 10.999328 16.000674 0.000000 10.999328 17.000674 0.000000 10.999328 18.000674 0.000000 10.999303 19.001012 0.000000 11.999329 -0.001012 0.000000 11.999329 0.999326 0.000000 11.999329 1.999326 0.000000 11.999329 2.999326 0.000000 11.999330 3.999327 0.000000 11.999332 4.999327 0.000000 11.999332 5.999327 0.000000 11.999330 6.999327 0.000000 11.999329 7.999328 0.000000 11.999330 9.000000 0.000000 11.999329 10.000001 0.000000 11.999329 11.000672 0.000000 11.999329 12.000673 0.000000 11.999329 13.000673 0.000000 11.999329 14.000673 0.000000 11.999329 15.000673 0.000000 11.999329 16.000674 0.000000 11.999329 17.000674 0.000000 11.999329 18.000674 0.000000 11.999312 19.001012 0.000000 12.999330 -0.001012 0.000000 12.999330 0.999326 0.000000 12.999330 1.999326 0.000000 12.999330 2.999326 0.000000 12.999330 3.999327 0.000000 12.999332 4.999327 0.000000 12.999332 5.999327 0.000000 12.999331 6.999327 0.000000 12.999330 7.999328 0.000000 12.999331 9.000000 0.000000 12.999329 10.000001 0.000000 12.999329 11.000672 0.000000 12.999329 12.000673 0.000000 12.999329 13.000673 0.000000 12.999329 14.000673 0.000000 12.999329 15.000673 0.000000 12.999329 16.000674 0.000000 12.999329 17.000674 0.000000 12.999329 18.000674 0.000000 12.999313 19.001012 0.000000 13.999330 -0.001012 0.000000 13.999330 0.999326 0.000000 13.999330 1.999326 0.000000 13.999330 2.999326 0.000000 13.999330 3.999327 0.000000 13.999332 4.999327 0.000000 13.999332 5.999327 0.000000 13.999331 6.999327 0.000000 13.999330 7.999328 0.000000 13.999331 9.000000 0.000000 13.999329 10.000001 0.000000 13.999329 11.000672 0.000000 13.999329 12.000673 0.000000 13.999329 13.000673 0.000000 13.999329 14.000673 0.000000 13.999329 15.000673 0.000000 13.999329 16.000674 0.000000 13.999329 17.000674 0.000000 13.999329 18.000674 0.000000 13.999315 19.001012 0.000000 14.999330 -0.001012 0.000000 14.999330 0.999326 0.000000 14.999330 1.999326 0.000000 14.999330 2.999326 0.000000 14.999331 3.999327 0.000000 14.999333 4.999327 0.000000 14.999333 5.999327 0.000000 14.999331 6.999327 0.000000 14.999330 7.999328 0.000000 14.999331 9.000000 0.000000 14.999330 10.000001 0.000000 14.999330 11.000672 0.000000 14.999330 12.000673 0.000000 14.999330 13.000673 0.000000 14.999330 14.000673 0.000000 14.999330 15.000673 0.000000 14.999330 16.000674 0.000000 14.999330 17.000674 0.000000 14.999330 18.000674 0.000000 14.999324 19.001012 0.000000 15.999330 -0.001012 0.000000 15.999330 0.999326 0.000000 15.999330 1.999326 0.000000 15.999330 2.999326 0.000000 15.999331 3.999327 0.000000 15.999333 4.999327 0.000000 15.999333 5.999327 0.000000 15.999332 6.999327 0.000000 15.999330 7.999328 0.000000 15.999332 9.000000 0.000000 15.999331 10.000001 0.000000 15.999331 11.000672 0.000000 15.999331 12.000673 0.000000 15.999331 13.000673 0.000000 15.999331 14.000673 0.000000 15.999330 15.000673 0.000000 15.999330 16.000674 0.000000 15.999330 17.000674 0.000000 15.999330 18.000674 0.000000 15.999324 19.001012 0.000000 16.999331 -0.001012 0.000000 16.999331 0.999326 0.000000 16.999331 1.999326 0.000000 16.999331 2.999326 0.000000 16.999331 3.999327 0.000000 16.999333 4.999327 0.000000 16.999333 5.999327 0.000000 16.999332 6.999327 0.000000 16.999331 7.999328
[...]
      <PointData Vectors="vector">
        <DataArray type="Float32" Name="Velocity" NumberOfComponents="3" format="ascii">
-0.015000 -0.009000 0.000000 -0.015000 -0.006000 0.000000 -0.015000 -0.006000 0.000000 -0.015000 -0.006000 0.000000 -0.021000 -0.006000 0.000000 -0.021000 -0.006000 0.000000 -0.021000 -0.006000 0.000000 -0.021000 -0.006000 0.000000 -0.015000 -0.006000 0.000000 -0.021000 0.000000 0.000000 -0.015000 0.000000 0.000000 -0.015000 0.006000 0.000000 -0.015000 0.006000 0.000000 -0.015000 0.006000 0.000000 -0.015000 0.006000 0.000000 -0.015000 0.006000 0.000000 -0.015000 0.006000 0.000000 -0.015000 0.006000 0.000000 -0.015000 0.006000 0.000000 -0.015000 0.009000 0.000000 -0.006000 -0.009000 0.000000 -0.006000 -0.006000 0.000000 -0.006000 -0.006000 0.000000 -0.006000 -0.006000 0.000000 -0.012000 -0.006000 0.000000 -0.018000 -0.006000 0.000000 -0.018000 -0.006000 0.000000 -0.012000 -0.006000 0.000000 -0.006000 -0.006000 0.000000 -0.012000 0.000000 0.000000 -0.006000 0.000000 0.000000 -0.006000 0.006000 0.000000 -0.006000 0.006000 0.000000 -0.006000 0.006000 0.000000 -0.006000 0.006000 0.000000 -0.006000 0.006000 0.000000 -0.006000 0.006000 0.000000 -0.006000 0.006000 0.000000 -0.006000 0.006000 0.000000 -0.018000 0.009000 0.000000 -0.006000 -0.009000 0.000000 -0.006000 -0.006000 0.000000 -0.006000 -0.006000 0.000000 -0.006000 -0.006000 0.000000 -0.006000 -0.006000 0.000000 -0.012000 -0.006000 0.000000 -0.012000 -0.006000 0.000000 -0.012000 -0.006000 0.000000 -0.006000 -0.006000 0.000000 -0.012000 0.000000 0.000000 -0.006000 0.000000 0.000000 -0.006000 0.006000 0.000000 -0.006000 0.006000 0.000000 -0.006000 0.006000 0.000000 -0.006000 0.006000 0.000000 -0.006000 0.006000 0.000000 -0.006000 0.006000 0.000000 -0.006000 0.006000 0.000000 -0.006000 0.006000 0.000000 -0.018000 0.009000 0.000000 -0.006000 -0.009000 0.000000 -0.006000 -0.006000 0.000000 -0.006000 -0.006000 0.000000 -0.006000 -0.006000 0.000000 -0.006000 -0.006000 0.000000 -0.012000 -0.006000 0.000000 -0.012000 -0.006000 0.000000 -0.012000 -0.006000 0.000000 -0.006000 -0.006000 0.000000 -0.012000 -0.000000 0.000000 -0.006000 -0.000000 0.000000 -0.006000 0.006000 0.000000 -0.006000 0.006000 0.000000 -0.006000 0.006000 0.000000 -0.006000 0.006000 0.000000 -0.006000 0.006000 0.000000 -0.006000 0.006000 0.000000 -0.006000 0.006000 0.000000 -0.006000 0.006000 0.000000 -0.018000 0.009000 0.000000 -0.006000 -0.009000 0.000000 -0.006000 -0.006000 0.000000 -0.006000 -0.006000 0.000000 -0.006000 -0.006000 0.000000 -0.006000 -0.005999 0.000000 -0.012000 -0.006000 0.000000 -0.012000 -0.005999 0.000000 -0.006000 -0.006000 0.000000 -0.006000 -0.006000 0.000000 -0.006000 0.000000 0.000000 -0.006000 0.000000 0.000000 -0.006000 0.006000 0.000000 -0.006000 0.006000 0.000000 -0.006000 0.006000 0.000000 -0.006000 0.006000 0.000000 -0.006000 0.006000 0.000000 -0.006000 0.006000 0.000000 -0.006000 0.006000 0.000000 -0.006000 0.006000 0.000000 -0.018000 0.009000 0.000000 -0.006000 -0.033000 0.000000 -0.006000 -0.018000 0.000000 -0.006000 -0.018000 0.000000 -0.006000 -0.018000 0.000000 -0.006000 -0.012001 0.000000 -0.012001 -0.012001 0.000000 -0.012000 -0.012001 0.000000 -0.006000 -0.012000 0.000000 -0.006000 -0.006000 0.000000 -0.006000 -0.006000 0.000000 -0.006000 -0.006000 0.000000 -0.006000 -0.000000 0.000000 -0.006000 0.006000 0.000000 -0.006000 0.006000 0.000000 -0.006000 0.006000 0.000000 -0.006000 0.006000 0.000000 -0.006000 0.006000 0.000000 -0.006000 0.006000 0.000000 -0.006000 0.006000 0.000000 -0.012000 0.009000 0.000000 -0.006000 -0.015000 0.000000 -0.006000 -0.012000 0.000000 -0.006000 -0.006000 0.000000 -0.006000 -0.006000 0.000000 -0.006000 -0.005999 0.000000 -0.012000 -0.006000 0.000000 -0.012000 -0.005999 0.000000 -0.006000 -0.000000 0.000000 -0.006000 0.000000 0.000000 -0.006000 0.000000 0.000000 -0.006000 0.000000 0.000000 -0.006000 0.006000 0.000000 -0.006000 0.006000 0.000000 -0.006000 0.006000 0.000000 -0.006000 0.006000 0.000000 -0.006000 0.006000 0.000000 -0.006000 0.006000 0.000000 -0.006000 0.006000 0.000000 -0.006000 0.006000 0.000000 -0.012000 0.009000 0.000000 -0.006000 -0.009000 0.000000 -0.006000 -0.006000 0.000000 -0.006000 -0.006000 0.000000 -0.006000 -0.006000 0.000000 -0.006000 -0.006000 0.000000 -0.006000 -0.006000 0.000000 -0.006000 -0.006000 0.000000 -0.006000 -0.006000 0.000000 -0.006000 -0.006000 0.000000 -0.006000 -0.000000 0.000000 -0.006000 0.000000 0.000000 -0.006000 0.006000 0.000000 -0.006000 0.006000 0.000000 -0.006000 0.006000 0.000000 -0.006000 0.006000 0.000000 -0.006000 0.006000 0.000000 -0.006000 0.006000 0.000000 -0.006000 0.006000 0.000000 -0.006000 0.006000 0.000000 -0.012000 0.009000 0.000000 -0.006000 -0.009000 0.000000 -0.006000 -0.006000 0.000000 -0.006000 -0.006000 0.000000 -0.006000 -0.006000 0.000000 -0.006000 -0.006000 0.000000 -0.006000 -0.006000 0.000000 -0.006000 -0.006000 0.000000 -0.006000 -0.006000 0.000000 -0.006000 -0.006000 0.000000 -0.006000 0.000000 0.000000 -0.006000 0.000000 0.000000 -0.006000 0.006000 0.000000 -0.006000 0.006000 0.000000 -0.006000 0.006000 0.000000 -0.006000 0.006000 0.000000 -0.006000 0.006000 0.000000 -0.006000 0.006000 0.000000 -0.006000 0.006000 0.000000 -0.006000 0.006000 0.000000 -0.012000 0.009000 0.000000 -0.006000 -0.009000 0.000000 -0.006000 -0.006000 0.000000 -0.006000 -0.006000 0.000000 -0.006000 -0.006000 0.000000 -0.006000 -0.006000 0.000000 -0.006000 -0.006000 0.000000 -0.006000 -0.006000 0.000000 -0.006000 -0.006000 0.000000 -0.006000 -0.006000 0.000000 -0.006000 0.000000 0.000000 -0.006000 0.000000 0.000000 -0.006000 0.006000 0.000000 -0.006000 0.006000 0.000000 -0.006000 0.006000 0.000000 -0.006000 0.006000 0.000000 -0.006000 0.006000 0.000000 -0.006000 0.006000 0.000000 -0.006000 0.006000 0.000000 -0.006000 0.006000 0.000000 -0.012000 0.009000 0.000000 -0.006000 -0.009000 0.000000 -0.006000 -0.006000 0.000000 -0.006000 -0.006000 0.000000 -0.006000 -0.006000 0.000000 -0.006000 -0.006000 0.000000 -0.006000 -0.006000 0.000000 -0.006000 -0.006000 0.000000 -0.006000 -0.006000 0.000000 -0.006000 -0.006000 0.000000 -0.006000 -0.000000 0.000000 -0.006000 0.000000 0.000000 -0.006000 0.006000 0.000000 -0.006000 0.006000 0.000000 -0.006000 0.006000 0.000000 -0.006000 0.006000 0.000000 -0.006000 0.006000 0.000000 -0.006000 0.006000 0.000000 -0.006000 0.006000 0.000000 -0.006000 0.006000 0.000000 -0.018000 0.009000 0.000000 -0.006000 -0.009000 0.000000 -0.006000 -0.006000 0.000000 -0.006000 -0.006000 0.000000 -0.006000 -0.006000 0.000000 -0.006000 -0.006000 0.000000 -0.006000 -0.006000 0.000000 -0.006000 -0.006000 0.000000 -0.006000 -0.006000 0.000000 -0.006000 -0.006000 0.000000 -0.006000 0.000000 0.000000 -0.006000 0.000000 0.000000 -0.006000 0.006000 0.000000 -0.006000 0.006000 0.000000 -0.006000 0.006000 0.000000 -0.006000 0.006000 0.000000 -0.006000 0.006000 0.000000 -0.006000 0.006000 0.000000 -0.006000 0.006000 0.000000 -0.006000 0.006000 0.000000 -0.012000 0.009000 0.000000 -0.006000 -0.009000 0.000000 -0.006000 -0.006000 0.000000 -0.006000 -0.006000 0.000000 -0.006000 -0.006000 0.000000 -0.006000 -0.006000 0.000000 -0.006000 -0.006000 0.000000 -0.006000 -0.006000 0.000000 -0.006000 -0.006000 0.000000 -0.006000 -0.006000 0.000000 -0.006000 0.000000 0.000000 -0.006000 0.000000 0.000000 -0.006000 0.006000 0.000000 -0.006000 0.006000 0.000000 -0.006000 0.006000 0.000000 -0.006000 0.006000 0.000000 -0.006000 0.006000 0.000000 -0.006000 0.006000 0.000000 -0.006000 0.006000 0.000000 -0.006000 0.006000 0.000000 -0.006000 0.009000 0.000000 -0.006000 -0.009000 0.000000 -0.006000 -0.006000 0.000000 -0.006000 -0.006000 0.000000 -0.006000 -0.006000 0.000000 -0.006000 -0.006000 0.000000 -0.006000 -0.006000 0.000000 -0.006000 -0.006000 0.000000 -0.006000 -0.006000 0.000000 -0.006000 -0.006000 0.000000 -0.006000 0.000000 0.000000 -0.006000 0.000000 0.000000 -0.006000 0.006000 0.000000 -0.006000 0.006000 0.000000 -0.006000 0.006000 0.000000 -0.006000 0.006000 0.000000 -0.006000 0.006000 0.000000 -0.006000 0.006000 0.000000 -0.006000 0.006000 0.000000 -0.006000 0.006000 0.000000 -0.012000 0.009000 0.000000 -0.006000 -0.009000 0.000000 -0.006000 -0.006000 0.000000 -0.006000 -0.006000 0.000000 -0.006000 -0.006000 0.000000 -0.006000 -0.006000 0.000000 -0.006000 -0.006000 0.000000 -0.006000 -0.006000 0.000000 -0.006000 -0.006000 0.000000 -0.006000 -0.006000 0.000000 -0.006000 0.000000 0.000000 -0.006000 0.000000 0.000000 -0.006000 0.006000 0.000000 -0.006000 0.006000 0.000000 -0.006000 0.006000 0.000000 -0.006000 0.006000 0.000000 -0.006000 0.006000 0.000000 -0.006000 0.006000 0.000000 -0.006000 0.006000 0.000000 -0.006000 0.006000 0.000000 -0.012000 0.009000 0.000000 -0.006000 -0.009000 0.000000 -0.006000 -0.006000 0.000000 -0.006000 -0.006000 0.000000 -0.006000 -0.006000 0.000000 -0.006000 -0.006000 0.000000 -0.006000 -0.006000 0.000000 -0.006000 -0.006000 0.000000 -0.006000 -0.006000 0.000000 -0.006000 -0.006000 0.000000 -0.006000 0.000000 0.000000 -0.006000 0.000000 0.000000 -0.006000 0.006000 0.000000 -0.006000 0.006000 0.000000 -0.006000 0.006000 0.000000 -0.006000 0.006000 0.000000 -0.006000 0.006000 0.000000 -0.006000 0.006000 0.000000 -0.006000 0.006000 0.000000 -0.006000 0.006000 0.000000 -0.006000 0.009000 0.000000 -0.006000 -0.009000 0.000000 -0.006000 -0.006000 0.000000 -0.006000 -0.006000 0.000000 -0.006000 -0.006000 0.000000 -0.006000 -0.006000 0.000000 -0.006000 -0.006000 0.000000 -0.006000 -0.006000 0.000000 -0.006000 -0.006000 0.000000 -0.006000 -0.006000 0.000000 -0.006000 0.000000 0.000000 -0.006000 0.000000 0.000000 -0.006000 0.006000 0.000000 -0.006000 0.006000 0.000000 -0.006000 0.006000 0.000000 -0.006000 0.006000 0.000000 -0.006000 0.006000 0.000000 -0.006000 0.006000 0.000000 -0.006000 0.006000 0.000000 -0.006000 0.006000 0.000000 -0.006000 0.009000 0.000000 -0.006000 -0.009000 0.000000 -0.006000 -0.006000 0.000000 -0.006000 -0.006000 0.000000 -0.006000 -0.006000 0.000000 -0.006000 -0.006000 0.000000 -0.006000 -0.006000 0.000000 -0.006000 -0.006000 0.000000 -0.006000 -0.006000 0.000000 -0.006000 -0.006000 0.000000 -0.006000 0.000000 0.000000 -0.006000 0.000000 0.000000 -0.006000 0.006000 0.000000 -0.006000 0.006000 0.000000 -0.006000 0.006000 0.000000 -0.006000 0.006000 0.000000 -0.006000 0.006000 0.000000 -0.006000 0.006000 0.000000 -0.006000 0.006000 0.000000 -0.006000 0.006000 0.000000 -0.006000 0.009000 0.000000 -0.006000 -0.009000 0.000000 -0.006000 -0.006000 0.000000 -0.006000 -0.006000 0.000000 -0.006000 -0.006000 0.000000 -0.006000 -0.006000 0.000000 -0.006000 -0.006000 0.000000 -0.006000 -0.006000 0.000000 -0.006000 -0.006000 0.000000 -0.006000 -0.006000 0.000000 -0.006000 0.000000 0.000000 -0.006000 0.000000 0.000000 -0.006000 0.006000 0.000000 -0.006000 0.006000 0.000000 -0.006000 0.006000 0.000000 -0.006000 0.006000 0.000000 -0.006000 0.006000 0.000000 -0.006000 0.006000 0.000000 -0.006000 0.006000 0.000000 -0.006000 0.006000 0.000000 -0.006000 0.009000 0.000000 -0.006000 -0.009000 0.000000 -0.006000 -0.006000 0.000000 -0.006000 -0.006000 0.000000 -0.006000 -0.006000 0.000000 -0.006000 -0.006000 0.000000 -0.006000 -0.006000 0.000000 -0.006000 -0.006000 0.000000 -0.006000 -0.006000 0.000000 -0.006000 -0.006000 0.000000 -0.006000 0.000000 0.000000 -0.006000 0.000000 0.000000 -0.006000 0.006000 0.000000 -0.006000 0.006000 0.000000 -0.006000 0.006000 0.000000 -0.006000 0.006000 0.000000 -0.006000 0.006000 0.000000 -0.006000 0.006000 0.000000 -0.006000 0.006000 0.000000 -0.006000 0.006000 0.000000 -0.006000 0.009000 0.000000 -0.006000 -0.009000 0.000000 -0.006000 -0.006000 0.000000 -0.006000 -0.006000 0.000000 -0.006000 -0.006000 0.000000 -0.006000 -0.006000 0.000000 -0.006000 -0.006000 0.000000 -0.006000 -0.006000 0.000000 -0.006000 -0.006000 0.000000 -0.006000 -0.006000 0.000000 -0.006000 0.000000 0.000000 -0.006000 0.000000 0.000000 -0.006000 0.006000 0.000000 -0.006000 0.006000 0.000000 -0.006000 0.006000 0.000000 -0.006000 0.006000 0.000000 -0.006000 0.006000 0.000000 -0.006000 0.006000 0.000000 -0.006000 0.006000 0.000000 -0.006000 0.006000 0.000000 -0.006000 0.009000 0.000000 -0.006000 -0.009000 0.000000 -0.006000 -0.006000 0.000000 -0.006000 -0.006000 0.000000 -0.006000 -0.006000 0.000000 -0.006000 -0.006000 0.000000 -0.006000 -0.006000 0.000000 -0.006000 -0.006000 0.000000 -0.006000 -0.006000 0.000000 -0.006000 -0.006000 0.000000 -0.006000 0.000000 0.000000 -0.006000 0.000000 0.000000 -0.006000 0.006000 0.000000 -0.006000 0.006000 0.000000 -0.006000 0.006000 0.000000 -0.006000 0.006000 0.000000 -0.006000 0.006000 0.000000 -0.006000 0.006000 0.000000 -0.006000 0.006000 0.000000 -0.006000 0.006000 0.000000 -0.006000 0.009000 0.000000 -0.006000 -0.009000 0.000000 -0.006000 -0.006000 0.000000 -0.006000 -0.006000 0.000000 -0.006000 -0.006000 0.000000 -0.006000 -0.006000 0.000000 -0.006000 -0.006000 0.000000 -0.006000 -0.006000 0.000000 -0.006000 -0.006000 0.000000 -0.006000 -0.006000 0.000000 -0.006000 0.000000 0.000000 -0.006000 0.000000 0.000000 -0.006000 0.006000 0.000000 -0.006000 0.006000 0.000000 -0.006000 0.006000 0.000000 -0.006000 0.006000 0.000000 -0.006000 0.006000 0.000000 -0.006000 0.006000 0.000000 -0.006000 0.006000 0.000000 -0.006000 0.006000 0.000000 -0.006000 0.009000 0.000000 -0.006000 -0.009000 0.000000 -0.006000 -0.006000 0.000000 -0.006000 -0.006000 0.000000 -0.006000 -0.006000 0.000000 -0.006000 -0.006000 0.000000 -0.006000 -0.006000 0.000000 -0.006000 -0.006000 0.000000 -0.006000 -0.006000 0.000000 -0.006000 -0.006000 0.000000 -0.006000 0.000000 0.000000 -0.006000 0.000000 0.000000 -0.006000 0.006000 0.000000 -0.006000 0.006000 0.000000 -0.006000 0.006000 0.000000 -0.006000 0.006000 0.000000 -0.006000 0.006000 0.000000 -0.006000 0.006000 0.000000 -0.006000 0.006000 0.000000 -0.006000 0.006000 0.000000 -0.003000 0.009000 0.000000 -0.006000 -0.009000 0.000000 -0.006000 -0.006000 0.000000 -0.006000 -0.006000 0.000000 -0.006000 -0.006000 0.000000 -0.006000 -0.006000 0.000000 -0.006000 -0.006000 0.000000 -0.006000 -0.006000 0.000000 -0.006000 -0.006000 0.000000 -0.006000 -0.006000 0.000000 -0.006000 0.000000 0.000000 -0.006000 0.000000 0.000000 -0.006000 0.006000 0.000000 -0.006000 0.006000 0.000000 -0.006000 0.006000 0.000000 -0.006000 0.006000 0.000000 -0.006000 0.006000 0.000000 -0.006000 0.006000 0.000000 -0.006000 0.006000 0.000000 -0.006000 0.006000 0.000000 -0.003000 0.009000 0.000000 -0.006000 -0.009000 0.000000 -0.006000 -0.006000 0.000000 -0.006000 -0.006000 0.000000 -0.006000 -0.006000 0.000000 -0.006000 -0.006000 0.000000 -0.006000 -0.006000 0.000000 -0.006000 -0.006000 0.000000 -0.006000 -0.006000 0.000000 -0.006000 -0.006000 0.000000 -0.006000 0.000000 0.000000 -0.006000 0.000000 0.000000 -0.006000 0.006000 0.000000 -0.006000 0.006000 0.000000 -0.006000 0.006000 0.000000 -0.006000 0.006000 0.000000 -0.006000 0.006000 0.000000 -0.006000 0.006000 0.000000 -0.006000 0.006000 0.000000 -0.006000 0.006000 0.000000 -0.006000 0.009000 0.000000 -0.006000 -0.009000 0.000000 -0.006000 -0.006000 0.000000 -0.006000 -0.006000 0.000000 -0.006000 -0.006000 0.000000 -0.006000 -0.006000 0.000000 -0.006000 -0.006000 0.000000 -0.006000 -0.006000 0.000000 -0.006000 -0.006000 0.000000 -0.006000 -0.006000 0.000000 -0.006000 0.000000 0.000000 -0.006000 0.000000 0.000000 -0.006000 0.006000 0.000000 -0.006000 0.006000 0.000000 -0.006000 0.006000 0.000000 -0.006000 0.006000 0.000000 -0.006000 0.006000 0.000000 -0.006000 0.006000 0.000000 -0.006000 0.006000 0.000000 -0.006000 0.006000 0.000000 -0.006000 0.009000 0.000000 -0.006000 -0.009000 0.000000 -0.006000 -0.006000 0.000000 -0.006000 -0.006000 0.000000 -0.006000 -0.006000 0.000000 -0.006000 -0.006000 0.000000 -0.006000 -0.006000 0.000000 -0.006000 -0.006000 0.000000 -0.006000 -0.006000 0.000000 -0.006000 -0.006000 0.000000 -0.006000 0.000000 0.000000 -0.006000 0.000000 0.000000 -0.006000 0.006000 0.000000 -0.006000 0.006000 0.000000 -0.006000 0.006000 0.000000 -0.006000 0.006000 0.000000 -0.006000 0.006000 0.000000 -0.006000 0.006000 0.000000 -0.006000 0.006000 0.000000 -0.006000 0.006000 0.000000 -0.000000 0.009000 0.000000 -0.006000 -0.009000 0.000000 -0.006000 -0.006000 0.000000 -0.006000 -0.006000 0.000000 -0.006000 -0.006000 0.000000 -0.006000 -0.006000 0.000000 -0.006000 -0.006000 0.000000 -0.006000 -0.006000 0.000000 -0.006000 -0.006000 0.000000 -0.006000 -0.006000 0.000000 -0.006000 0.000000 0.000000 -0.006000 0.000000 0.000000 -0.006000 0.006000 0.000000 -0.006000 0.006000 0.000000 -0.006000 0.006000 0.000000 -0.006000 0.006000 0.000000 -0.006000 0.006000 0.000000 -0.006000 0.006000 0.000000 -0.006000 0.006000 0.000000 -0.006000 0.006000 0.000000 -0.000000 0.009000 0.000000 -0.006000 -0.009000 0.000000 -0.006000 -0.006000 0.000000 -0.006000 -0.006000 0.000000 -0.006000 -0.006000 0.000000 -0.006000 -0.006000 0.000000 -0.006000 -0.006000 0.000000 -0.006000 -0.006000 0.000000 -0.006000 -0.006000 0.000000 -0.006000 -0.006000 0.000000 -0.006000 0.000000 0.000000 -0.006000 0.000000 0.000000 -0.006000 0.006000 0.000000 -0.006000 0.006000 0.000000 -0.006000 0.006000 0.000000 -0.006000 0.006000 0.000000 -0.006000 0.006000 0.000000 -0.006000 0.006000 0.000000 -0.006000 0.006000 0.000000 -0.006000 0.006000 0.000000 0.000000 0.009155 0.000000 -0.006000 -0.009000 0.000000 -0.006000 -0.006000 0.000000 -0.006000 -0.006000 0.000000 -0.006000 -0.006000 0.000000 -0.006000 -0.006000 0.000000 -0.006000 -0.006000 0.000000 -0.006000 -0.006000 0.000000 -0.006000 -0.006000 0.000000 -0.006000 -0.006000 0.000000 -0.006000 -0.072000 0.000000 -0.006000 -0.081009 0.000000 -0.006000 -0.119991 0.000000 -0.006000 -0.126000 0.000000 -0.006000 -0.132000 0.000000 -0.006000 -0.132000 0.000000 -0.006000 -0.138000 0.000000 -0.006000 -0.138000 0.000000 -0.006000 -0.144002 0.000000 -0.006005 -0.151647 0.000000 0.006938 -1.192248 0.000000 -0.006000 -0.009000 0.000000 -0.006000 -0.006000 0.000000 -0.006000 -0.006000 0.000000 -0.006000 -0.006000 0.000000 -0.006000 -0.006000 0.000000 -0.006000 -0.006000 0.000000 -0.006000 -0.006000 0.000000 -0.006000 -0.006000 0.000000 -0.006000 -0.006000 0.000000 -0.006000 -0.063000 0.000000 -0.006000 -0.060006 0.000000 -0.006000 -0.119994 0.000000 -0.006000 -0.126000 0.000000 -0.006000 -0.132000 0.000000 -0.006000 -0.132000 0.000000 -0.006000 -0.138000 0.000000 -0.006000 -0.138000 0.000000 -0.006000 -0.144002 0.000000 -0.006010 -0.151573 0.000000 0.000072 -1.155360 0.000000 -0.006000 -0.009000 0.000000 -0.006000 -0.006000 0.000000 -0.006000 -0.006000 0.000000 -0.006000 -0.006000 0.000000 -0.006000 -0.006000 0.000000 -0.006000 -0.006000 0.000000 -0.006000 -0.006000 0.000000 -0.006000 -0.006000 0.000000 -0.006000 -0.006000 0.000000 -0.006000 -0.069000 0.000000 -0.006000 -0.060007 0.000000 -0.006000 -0.119994 0.000000 -0.006000 -0.126000 0.000000 -0.006000 -0.132000 0.000000 -0.006000 -0.132000 0.000000 -0.006000 -0.138000 0.000000 -0.006000 -0.138000 0.000000 -0.006000 -0.144002 0.000000 -0.006011 -0.151582 0.000000 0.000073 -1.086795 0.000000 -0.006000 -0.009000 0.000000 -0.006000 -0.006000 0.000000 -0.006000 -0.006000 0.000000 -0.006000 -0.006000 0.000000 -0.006000 -0.006000 0.000000 0.000000 -0.006000 0.000000 0.000000 -0.006000 0.000000 -0.006000 -0.006000 0.000000 -0.006000 -0.006000 0.000000 -0.006000 -0.063000 0.000000 -0.006000 -0.060006 0.000000 -0.006000 -0.119994 0.000000 -0.006000 -0.126000 0.000000 -0.006000 -0.132000 0.000000 -0.006000 -0.132000 0.000000 -0.006000 -0.138000 0.000000 -0.006000 -0.138000 0.000000 -0.006000 -0.144002 0.000000 -0.006012 -0.151573 0.000000 0.000078 -1.155365 0.000000 -0.006000 -0.009000 0.000000 -0.006000 -0.006000 0.000000 -0.006000 -0.006000 0.000000 -0.006000 -0.006000 0.000000 -0.006000 -0.006000 0.000000 0.000000 -0.006000 0.000000 0.000000 -0.006000 0.000000 -0.006000 -0.006000 0.000000 -0.006000 -0.006000 0.000000 -0.006000 -0.063000 0.000000 -0.006000 -0.060006 0.000000 -0.006000 -0.119994 0.000000 -0.006000 -0.126000 0.000000 -0.006000 -0.132000 0.000000 -0.006000 -0.132000 0.000000 -0.006000 -0.138000 0.000000 -0.006000 -0.138000 0.000