<VTKFile type="UnstructuredGrid" version="0.1" byte_order="LittleEndian">
  <UnstructuredGrid>
    <Piece NumberOfPoints="2000" NumberOfCells="0">
      <Points>
        <DataArray name="Position" type="Float32" NumberOfComponents="3" format="ascii">
-0.003909 -0.002348 0.000000 -0.003909 0.998435 0.000000 -0.003909 1.998435 0.000000 -0.003909 2.998435 0.000000 -0.005307 3.998436 0.000000 -0.005441 4.998436 0.000000 -0.005426 5.998436 0.000000 -0.005462 6.998436 0.000000 -0.003900 7.998437 0.000000 -0.005461 9.000000 0.000000 -0.003896 10.000001 0.000000 -0.003895 11.001563 0.000000 -0.003897 12.001564 0.000000 -0.003897 13.001564 0.000000 -0.003897 14.001564 0.000000 -0.003891 15.001564 0.000000 -0.003891 16.001565 0.000000 -0.003891 17.001565 0.000000 -0.003891 18.001565 0.000000 -0.003891 19.002348 0.000000 0.998432 -0.002348 0.000000 0.998432 0.998435 0.000000 0.997048 1.998435 0.000000 0.996784 2.998435 0.000000 0.996770 3.998436 0.000000 0.995348 4.998436 0.000000 0.995418 5.998436 0.000000 0.996766 6.998436 0.000000 0.996749 7.998437 0.000000 0.996876 9.000000 0.000000 0.996715 10.000001 0.000000 0.996971 11.001563 0.000000 0.998426 12.001564 0.000000 0.998426 13.001564 0.000000 0.998426 14.001564 0.000000 0.998423 15.001564 0.000000 0.998423 16.001565 0.000000 0.998423 17.001565 0.000000 0.996776 18.001565 0.000000 0.996568 19.002348 0.000000 1.998435 -0.002348 0.000000 1.998435 0.998435 0.000000 1.998431 1.998435 0.000000 1.996788 2.998435 0.000000 1.996790 3.998436 0.000000 1.996867 4.998436 0.000000 1.996860 5.998436 0.000000 1.996796 6.998436 0.000000 1.996750 7.998437 0.000000 1.996879 9.000000 0.000000 1.996740 10.000001 0.000000 1.997001 11.001563 0.000000 1.998435 12.001564 0.000000 1.998435 13.001564 0.000000 1.998435 14.001564 0.000000 1.998435 15.001564 0.000000 1.998435 16.001565 0.000000 1.998435 17.001565 0.000000 1.996786 18.001565 0.000000 1.996582 19.002348 0.000000 2.998435 -0.002348 0.000000 2.998435 0.998435 0.000000 2.998434 1.998435 0.000000 2.996794 2.998435 0.000000 2.996805 3.998435 0.000000 2.996875 4.998436 0.000000 2.996877 5.998436 0.000000 2.996875 6.998436 0.000000 2.996752 7.998437 0.000000 2.996883 9.000000 0.000000 2.996744 10.000001 0.000000 2.997023 11.001563 0.000000 2.998435 12.001564 0.000000 2.998435 13.001564 0.000000 2.998435 14.001564 0.000000 2.998435 15.001564 0.000000 2.998435 16.001565 0.000000 2.998435 17.001565 0.000000 2.996803 18.001565 0.000000 2.996593 19.002348 0.000000 3.998435 -0.002348 0.000000 3.998435 0.997677 0.000000 3.998435 1.997782 0.000000 3.996862 2.997932 0.000000 3.996823 3.998018 0.000000 3.996876 4.998859 0.000000 3.996881 5.998946 0.000000 3.996878 6.999094 0.000000 3.996752 7.999194 0.000000 3.997016 9.000001 0.000000 3.996763 10.000005 0.000000 3.997046 11.000900 0.000000 3.998435 12.001564 0.000000 3.998435 13.001564 0.000000 3.998435 14.001564 0.000000 3.998435 15.001565 0.000000 3.998435 16.001565 0.000000 3.998435 17.001566 0.000000 3.996811 18.002231 0.000000 3.996604 19.002348 0.000000 4.998436 -0.008513 0.000000 4.998436 0.994935 0.000000 4.998434 1.995293 0.000000 4.998429 2.995690 0.000000 4.998016 3.996856 0.000000 4.996878 4.996873 0.000000 4.996913 5.996881 0.000000 4.996880 6.996888 0.000000 4.996789 7.997611 0.000000 4.997036 8.998432 0.000000 4.996765 9.999244 0.000000 4.997046 10.999990 0.000000 4.998436 12.001564 0.000000 4.998436 13.001564 0.000000 4.998436 14.001564 0.000000 4.998436 15.001564 0.000000 4.998436 16.001565 0.000000 4.998436 17.001565 0.000000 4.996831 18.001565 0.000000 4.996629 19.002348 0.000000 5.998437 -0.003902 0.000000 5.998437 0.996910 0.000000 5.998437 1.997677 0.000000 5.998437 2.998013 0.000000 5.998173 3.998435 0.000000 5.996883 4.998866 0.000000 5.996918 5.999196 0.000000 5.998427 6.999250 0.000000 5.997591 7.999973 0.000000 5.997238 9.000004 0.000000 5.996781 10.000762 0.000000 5.997106 11.000968 0.000000 5.998436 12.001564 0.000000 5.998436 13.001564 0.000000 5.998436 14.001564 0.000000 5.998436 15.001565 0.000000 5.998436 16.001565 0.000000 5.998436 17.001566 0.000000 5.996831 18.002164 0.000000 5.997508 19.002348 0.000000 6.998437 -0.002348 0.000000 6.998437 0.997652 0.000000 6.998437 1.997742 0.000000 6.998437 2.998435 0.000000 6.998438 3.998436 0.000000 6.997218 4.998436 0.000000 6.997066 5.998436 0.000000 6.998432 6.999124 0.000000 6.997596 7.999216 0.000000 6.998426 8.999999 0.000000 6.997574 10.000001 0.000000 6.997701 11.001563 0.000000 6.998436 12.001564 0.000000 6.998436 13.001564 0.000000 6.998436 14.001564 0.000000 6.998436 15.001564 0.000000 6.998436 16.001565 0.000000 6.998436 17.001565 0.000000 6.996832 18.001565 0.000000 6.997510 19.002348 0.000000 7.998437 -0.002348 0.000000 7.998437 0.998435 0.000000 7.998437 1.998435 0.000000 7.998437 2.998435 0.000000 7.998439 3.998435 0.000000 7.998426 4.998436 0.000000 7.998426 5.998436 0.000000 7.998433 6.998436 0.000000 7.997599 7.998437 0.000000 7.998432 8.999999 0.000000 7.997582 10.000001 0.000000 7.997712 11.001563 0.000000 7.998436 12.001564 0.000000 7.998436 13.001564 0.000000 7.998436 14.001564 0.000000 7.998436 15.001564 0.000000 7.998436 16.001565 0.000000 7.998436 17.001565 0.000000 7.996836 18.001565 0.000000 7.997513 19.002348 0.000000 8.998437 -0.002348 0.000000 8.998437 0.998435 0.000000 8.998437 1.998435 0.000000 8.998437 2.998435 0.000000 8.998439 3.998436 0.000000 8.998433 4.998436 0.000000 8.998433 5.998436 0.000000 8.998433 6.998436 0.000000 8.997603 7.998437 0.000000 8.998433 9.000000 0.000000 8.997587 10.000001 0.000000 8.997716 11.001563 0.000000 8.998437 12.001564 0.000000 8.998437 13.001564 0.000000 8.998437 14.001564 0.000000 8.998437 15.001564 0.000000 8.998437 16.001565 0.000000 8.998437 17.001565 0.000000 8.996866 18.001565 0.000000 8.997515 19.002348 0.000000 9.998438 -0.002348 0.000000 9.998438 0.998435 0.000000 9.998438 1.998435 0.000000 9.998438 2.998435 0.000000 9.998439 3.998436 0.000000 9.998434 4.998436 0.000000 9.998435 5.998436 0.000000 9.998436 6.998436 0.000000 9.998424 7.998437 0.000000 9.998433 9.000000 0.000000 9.997589 10.000001 0.000000 9.997718 11.001563 0.000000 9.998437 12.001564 0.000000 9.998437 13.001564 0.000000 9.998437 14.001564 0.000000 9.998437 15.001564 0.000000 9.998437 16.001565 0.000000 9.998437 17.001565 0.000000 9.997610 18.001565 0.000000 9.997519 19.002348 0.000000 10.998438 -0.002348 0.000000 10.998438 0.998435 0.000000 10.998438 1.998435 0.000000 10.998438 2.998435 0.000000 10.998439 3.998436 0.000000 10.998441 4.998436 0.000000 10.998441 5.998436 0.000000 10.998439 6.998436 0.000000 10.998439 7.998437 0.000000 10.998439 9.000000 0.000000 10.997589 10.000001 0.000000 10.997727 11.001563 0.000000 10.998437 12.001564 0.000000 10.998437 13.001564 0.000000 10.998437 14.001564 0.000000 10.998437 15.001564 0.000000 10.998437 16.001565 0.000000 10.998437 17.001565 0.000000 10.997611 18.001565 0.000000 10.997521 19.002348 0.000000 11.998438 -0.002348 0.000000 11.998438 0.998435 0.000000 11.998438 1.998435 0.000000 11.998438 2.998435 0.000000 11.998440 3.998436 0.000000 11.998441 4.998436 0.000000 11.998441 5.998436 0.000000 11.998439 6.998436 0.000000 11.998439 7.998437 0.000000 11.998439 9.000000 0.000000 11.997591 10.000001 0.000000 11.997729 11.001563 0.000000 11.998438 12.001564 0.000000 11.998438 13.001564 0.000000 11.998438 14.001564 0.000000 11.998438 15.001564 0.000000 11.998438 16.001565 0.000000 11.998438 17.001565 0.000000 11.997618 18.001565 0.000000 11.997531 19.002348 0.000000 12.998439 -0.002348 0.000000 12.998439 0.998435 0.000000 12.998439 1.998435 0.000000 12.998439 2.998435 0.000000 12.998440 3.998436 0.000000 12.998441 4.998436 0.000000 12.998441 5.998436 0.000000 12.998440 6.998436 0.000000 12.998440 7.998437 0.000000 12.998440 9.000000 0.000000 12.998422 10.000001 0.000000 12.998420 11.001563 0.000000 12.998438 12.001564 0.000000 12.998438 13.001564 0.000000 12.998438 14.001564 0.000000 12.998438 15.001564 0.000000 12.998438 16.001565 0.000000 12.998438 17.001565 0.000000 12.997620 18.001565 0.000000 12.997533 19.002348 0.000000 13.998439 -0.002348 0.000000 13.998439 0.998435 0.000000 13.998439 1.998435 0.000000 13.998439 2.998435 0.000000 13.998440 3.998436 0.000000 13.998441 4.998436 0.000000 13.998441 5.998436 0.000000 13.998440 6.998436 0.000000 13.998440 7.998437 0.000000 13.998440 9.000000 0.000000 13.998432 10.000001 0.000000 13.998430 11.001563 0.000000 13.998438 12.001564 0.000000 13.998438 13.001564 0.000000 13.998438 14.001564 0.000000 13.998438 15.001564 0.000000 13.998438 16.001565 0.000000 13.998438 17.001565 0.000000 13.997622 18.001565 0.000000 13.998421 19.002348 0.000000 14.998439 -0.002348 0.000000 14.998439 0.998435 0.000000 14.998439 1.998435 0.000000 14.998439 2.998435 0.000000 14.998441 3.998436 0.000000 14.998442 4.998436 0.000000 14.998442 5.998436 0.000000 14.998440 6.998436 0.000000 14.998440 7.998437 0.000000 14.998440 9.000000 0.000000 14.998432 10.000001 0.000000 14.998432 11.001563 0.000000 14.998439 12.001564 0.000000 14.998439 13.001564 0.000000 14.998439 14.001564 0.000000 14.998439 15.001564 0.000000 14.998439 16.001565 0.000000 14.998439 17.001565 0.000000 14.997624 18.001565 0.000000 14.998433 19.002348 0.000000 15.998439 -0.002348 0.000000 15.998439 0.998435 0.000000 15.998439 1.998435 0.000000 15.998439 2.998435 0.000000 15.998441 3.998436 0.000000 15.998442 4.998436 0.000000 15.998442 5.998436 0.000000 15.998441 6.998436 0.000000 15.998441 7.998437 0.000000 15.998441 9.000000 0.000000 15.998435 10.000001 0.000000 15.998435 11.001563 0.000000 15.998440 12.001564 0.000000 15.998440 13.001564 0.000000 15.998440 14.001564 0.000000 15.998439 15.001564 0.000000 15.998439 16.001565 0.000000 15.998439 17.001565 0.000000 15.997649 18.001565 0.000000 15.998433 19.002348 0.000000 16.998440 -0.002348 0.000000 16.998440 0.998435 0.000000 16.998440 1.998435 0.000000 16.998440 2.998435 0.000000 16.998441 3.998436 0.000000 16.998442 4.998436 0.000000 16.998442 5.998436 0.000000 16.998441 6.998436 0.000000 16.998441 7.998437
[...]
      <PointData Vectors="vector">
        <DataArray type="Float32" Name="Velocity" NumberOfComponents="3" format="ascii">
-0.015000 -0.009000 0.000000 -0.015000 -0.006000 0.000000 -0.015000 -0.006000 0.000000 -0.015000 -0.006000 0.000000 -0.021000 -0.006000 0.000000 -0.021000 -0.006000 0.000000 -0.021000 -0.006000 0.000000 -0.021000 -0.006000 0.000000 -0.015000 -0.006000 0.000000 -0.021000 0.000000 0.000000 -0.015000 0.000000 0.000000 -0.015000 0.006000 0.000000 -0.015000 0.006000 0.000000 -0.015000 0.006000 0.000000 -0.015000 0.006000 0.000000 -0.015000 0.006000 0.000000 -0.015000 0.006000 0.000000 -0.015000 0.006000 0.000000 -0.015000 0.006000 0.000000 -0.015000 0.009000 0.000000 -0.006000 -0.009000 0.000000 -0.006000 -0.006000 0.000000 -0.018000 -0.006000 0.000000 -0.018000 -0.006000 0.000000 -0.018000 -0.006000 0.000000 -0.018000 -0.006000 0.000000 -0.018000 -0.006000 0.000000 -0.018000 -0.006000 0.000000 -0.018000 -0.006000 0.000000 -0.012000 0.000000 0.000000 -0.018000 0.000000 0.000000 -0.018000 0.006000 0.000000 -0.006000 0.006000 0.000000 -0.006000 0.006000 0.000000 -0.006000 0.006000 0.000000 -0.006000 0.006000 0.000000 -0.006000 0.006000 0.000000 -0.006000 0.006000 0.000000 -0.018000 0.006000 0.000000 -0.018000 0.009000 0.000000 -0.006000 -0.009000 0.000000 -0.006000 -0.006000 0.000000 -0.006000 -0.006000 0.000000 -0.018000 -0.006000 0.000000 -0.012000 -0.006000 0.000000 -0.012000 -0.006000 0.000000 -0.012000 -0.006000 0.000000 -0.018000 -0.006000 0.000000 -0.018000 -0.006000 0.000000 -0.012000 0.000000 0.000000 -0.018000 0.000000 0.000000 -0.018000 0.006000 0.000000 -0.006000 0.006000 0.000000 -0.006000 0.006000 0.000000 -0.006000 0.006000 0.000000 -0.006000 0.006000 0.000000 -0.006000 0.006000 0.000000 -0.006000 0.006000 0.000000 -0.018000 0.006000 0.000000 -0.018000 0.009000 0.000000 -0.006000 -0.009000 0.000000 -0.006000 -0.006000 0.000000 -0.006000 -0.006000 0.000000 -0.018000 -0.006000 0.000000 -0.018000 -0.006000 0.000000 -0.012000 -0.006000 0.000000 -0.012000 -0.006000 0.000000 -0.012000 -0.006007 0.000000 -0.018000 -0.006000 0.000000 -0.012000 -0.000000 0.000000 -0.018000 -0.000000 0.000000 -0.018000 0.006000 0.000000 -0.006000 0.006000 0.000000 -0.006000 0.006000 0.000000 -0.006000 0.006000 0.000000 -0.006000 0.006000 0.000000 -0.006000 0.006000 0.000000 -0.006000 0.006000 0.000000 -0.018000 0.006000 0.000000 -0.018000 0.009000 0.000000 -0.006000 -0.009000 0.000000 -0.006000 -0.012000 0.000000 -0.005998 -0.011979 0.000000 -0.018001 -0.011929 0.000000 -0.017988 -0.011972 0.000000 -0.012013 0.000000 0.000000 -0.012007 0.000001 0.000000 -0.011993 0.000027 0.000000 -0.018000 0.000000 0.000000 -0.018000 0.000010 0.000000 -0.018000 0.000034 0.000000 -0.018000 0.000041 0.000000 -0.006000 0.006000 0.000000 -0.006000 0.006000 0.000000 -0.006000 0.006000 0.000000 -0.006000 0.006000 0.000000 -0.006000 0.006000 0.000000 -0.005998 0.006000 0.000000 -0.018002 0.012000 0.000000 -0.018000 0.009000 0.000000 -0.006000 -0.033000 0.000000 -0.006000 -0.030000 0.000000 -0.006000 -0.018020 0.000000 -0.006000 -0.006071 0.000000 -0.012000 -0.012035 0.000000 -0.012001 -0.012001 0.000000 -0.012000 -0.012001 0.000000 -0.012000 -0.012055 0.000000 -0.018000 -0.012044 0.000000 -0.018000 -0.006031 0.000000 -0.018000 -0.000078 0.000000 -0.018000 -0.000092 0.000000 -0.006000 0.006000 0.000000 -0.006000 0.006000 0.000000 -0.006000 0.006000 0.000000 -0.006000 0.006000 0.000000 -0.006000 0.006000 0.000000 -0.006000 0.006000 0.000000 -0.018000 0.006000 0.000000 -0.018000 0.009000 0.000000 -0.006000 -0.015000 0.000000 -0.006000 -0.012000 0.000000 -0.006000 -0.011981 0.000000 -0.006000 -0.011929 0.000000 -0.011988 -0.005958 0.000000 -0.012012 0.000000 0.000000 -0.012000 0.000001 0.000000 -0.005999 -0.005949 0.000000 -0.012001 0.000091 0.000000 -0.017999 0.000021 0.000000 -0.018001 0.006043 0.000000 -0.018001 0.000051 0.000000 -0.005999 0.006000 0.000000 -0.006000 0.006000 0.000000 -0.006000 0.006000 0.000000 -0.006000 0.006000 0.000000 -0.006000 0.006000 0.000000 -0.005998 0.006000 0.000000 -0.018002 0.012000 0.000000 -0.012000 0.009000 0.000000 -0.006000 -0.009000 0.000000 -0.006000 -0.012000 0.000000 -0.006000 -0.011999 0.000000 -0.006000 -0.006000 0.000000 -0.006000 -0.006000 0.000000 -0.018000 -0.006000 0.000000 -0.018000 -0.006000 0.000000 -0.006000 -0.000017 0.000000 -0.012000 -0.000048 0.000000 -0.006000 -0.000000 0.000000 -0.012000 -0.000000 0.000000 -0.012000 0.006000 0.000000 -0.006000 0.006000 0.000000 -0.006000 0.006000 0.000000 -0.006000 0.006000 0.000000 -0.006000 0.006000 0.000000 -0.006000 0.006000 0.000000 -0.006000 0.006000 0.000000 -0.018000 0.006000 0.000000 -0.012000 0.009000 0.000000 -0.006000 -0.009000 0.000000 -0.006000 -0.006000 0.000000 -0.006000 -0.006000 0.000000 -0.006000 -0.006000 0.000000 -0.006000 -0.006000 0.000000 -0.006000 -0.006000 0.000000 -0.006000 -0.006000 0.000000 -0.006000 -0.006000 0.000000 -0.012000 -0.006000 0.000000 -0.006000 0.000000 0.000000 -0.012000 0.000000 0.000000 -0.012000 0.006000 0.000000 -0.006000 0.006000 0.000000 -0.006000 0.006000 0.000000 -0.006000 0.006000 0.000000 -0.006000 0.006000 0.000000 -0.006000 0.006000 0.000000 -0.006000 0.006000 0.000000 -0.018000 0.006000 0.000000 -0.012000 0.009000 0.000000 -0.006000 -0.009000 0.000000 -0.006000 -0.006000 0.000000 -0.006000 -0.006000 0.000000 -0.006000 -0.006000 0.000000 -0.006000 -0.006000 0.000000 -0.006000 -0.006000 0.000000 -0.006000 -0.006000 0.000000 -0.006000 -0.006000 0.000000 -0.012000 -0.006000 0.000000 -0.006000 0.000000 0.000000 -0.012000 0.000000 0.000000 -0.012000 0.006000 0.000000 -0.006000 0.006000 0.000000 -0.006000 0.006000 0.000000 -0.006000 0.006000 0.000000 -0.006000 0.006000 0.000000 -0.006000 0.006000 0.000000 -0.006000 0.006000 0.000000 -0.018000 0.006000 0.000000 -0.012000 0.009000 0.000000 -0.006000 -0.009000 0.000000 -0.006000 -0.006000 0.000000 -0.006000 -0.006000 0.000000 -0.006000 -0.006000 0.000000 -0.006000 -0.006000 0.000000 -0.006000 -0.006000 0.000000 -0.006000 -0.006000 0.000000 -0.006000 -0.006000 0.000000 -0.006000 -0.006000 0.000000 -0.006000 -0.000000 0.000000 -0.012000 0.000000 0.000000 -0.012000 0.006000 0.000000 -0.006000 0.006000 0.000000 -0.006000 0.006000 0.000000 -0.006000 0.006000 0.000000 -0.006000 0.006000 0.000000 -0.006000 0.006000 0.000000 -0.006000 0.006000 0.000000 -0.012000 0.006000 0.000000 -0.012000 0.009000 0.000000 -0.006000 -0.009000 0.000000 -0.006000 -0.006000 0.000000 -0.006000 -0.006000 0.000000 -0.006000 -0.006000 0.000000 -0.006000 -0.006000 0.000000 -0.006000 -0.006000 0.000000 -0.006000 -0.006000 0.000000 -0.006000 -0.006000 0.000000 -0.006000 -0.006000 0.000000 -0.006000 0.000000 0.000000 -0.012000 0.000000 0.000000 -0.012000 0.006000 0.000000 -0.006000 0.006000 0.000000 -0.006000 0.006000 0.000000 -0.006000 0.006000 0.000000 -0.006000 0.006000 0.000000 -0.006000 0.006000 0.000000 -0.006000 0.006000 0.000000 -0.012000 0.006000 0.000000 -0.012000 0.009000 0.000000 -0.006000 -0.009000 0.000000 -0.006000 -0.006000 0.000000 -0.006000 -0.006000 0.000000 -0.006000 -0.006000 0.000000 -0.006000 -0.006000 0.000000 -0.006000 -0.006000 0.000000 -0.006000 -0.006000 0.000000 -0.006000 -0.006000 0.000000 -0.006000 -0.006000 0.000000 -0.006000 0.000000 0.000000 -0.012000 0.000000 0.000000 -0.012000 0.006000 0.000000 -0.006000 0.006000 0.000000 -0.006000 0.006000 0.000000 -0.006000 0.006000 0.000000 -0.006000 0.006000 0.000000 -0.006000 0.006000 0.000000 -0.006000 0.006000 0.000000 -0.012000 0.006000 0.000000 -0.012000 0.009000 0.000000 -0.006000 -0.009000 0.000000 -0.006000 -0.006000 0.000000 -0.006000 -0.006000 0.000000 -0.006000 -0.006000 0.000000 -0.006000 -0.006000 0.000000 -0.006000 -0.006000 0.000000 -0.006000 -0.006000 0.000000 -0.006000 -0.006000 0.000000 -0.006000 -0.006000 0.000000 -0.006000 0.000000 0.000000 -0.006000 0.000000 0.000000 -0.006000 0.006000 0.000000 -0.006000 0.006000 0.000000 -0.006000 0.006000 0.000000 -0.006000 0.006000 0.000000 -0.006000 0.006000 0.000000 -0.006000 0.006000 0.000000 -0.006000 0.006000 0.000000 -0.012000 0.006000 0.000000 -0.012000 0.009000 0.000000 -0.006000 -0.009000 0.000000 -0.006000 -0.006000 0.000000 -0.006000 -0.006000 0.000000 -0.006000 -0.006000 0.000000 -0.006000 -0.006000 0.000000 -0.006000 -0.006000 0.000000 -0.006000 -0.006000 0.000000 -0.006000 -0.006000 0.000000 -0.006000 -0.006000 0.000000 -0.006000 0.000000 0.000000 -0.006000 0.000000 0.000000 -0.006000 0.006000 0.000000 -0.006000 0.006000 0.000000 -0.006000 0.006000 0.000000 -0.006000 0.006000 0.000000 -0.006000 0.006000 0.000000 -0.006000 0.006000 0.000000 -0.006000 0.006000 0.000000 -0.012000 0.006000 0.000000 -0.006000 0.009000 0.000000 -0.006000 -0.009000 0.000000 -0.006000 -0.006000 0.000000 -0.006000 -0.006000 0.000000 -0.006000 -0.006000 0.000000 -0.006000 -0.006000 0.000000 -0.006000 -0.006000 0.000000 -0.006000 -0.006000 0.000000 -0.006000 -0.006000 0.000000 -0.006000 -0.006000 0.000000 -0.006000 0.000000 0.000000 -0.006000 0.000000 0.000000 -0.006000 0.006000 0.000000 -0.006000 0.006000 0.000000 -0.006000 0.006000 0.000000 -0.006000 0.006000 0.000000 -0.006000 0.006000 0.000000 -0.006000 0.006000 0.000000 -0.006000 0.006000 0.000000 -0.012000 0.006000 0.000000 -0.006000 0.009000 0.000000 -0.006000 -0.009000 0.000000 -0.006000 -0.006000 0.000000 -0.006000 -0.006000 0.000000 -0.006000 -0.006000 0.000000 -0.006000 -0.006000 0.000000 -0.006000 -0.006000 0.000000 -0.006000 -0.006000 0.000000 -0.006000 -0.006000 0.000000 -0.006000 -0.006000 0.000000 -0.006000 0.000000 0.000000 -0.006000 0.000000 0.000000 -0.006000 0.006000 0.000000 -0.006000 0.006000 0.000000 -0.006000 0.006000 0.000000 -0.006000 0.006000 0.000000 -0.006000 0.006000 0.000000 -0.006000 0.006000 0.000000 -0.006000 0.006000 0.000000 -0.012000 0.006000 0.000000 -0.006000 0.009000 0.000000 -0.006000 -0.009000 0.000000 -0.006000 -0.006000 0.000000 -0.006000 -0.006000 0.000000 -0.006000 -0.006000 0.000000 -0.006000 -0.006000 0.000000 -0.006000 -0.006000 0.000000 -0.006000 -0.006000 0.000000 -0.006000 -0.006000 0.000000 -0.006000 -0.006000 0.000000 -0.006000 0.000000 0.000000 -0.006000 0.000000 0.000000 -0.006000 0.006000 0.000000 -0.006000 0.006000 0.000000 -0.006000 0.006000 0.000000 -0.006000 0.006000 0.000000 -0.006000 0.006000 0.000000 -0.006000 0.006000 0.000000 -0.006000 0.006000 0.000000 -0.012000 0.006000 0.000000 -0.006000 0.009000 0.000000 -0.006000 -0.009000 0.000000 -0.006000 -0.006000 0.000000 -0.006000 -0.006000 0.000000 -0.006000 -0.006000 0.000000 -0.006000 -0.006000 0.000000 -0.006000 -0.006000 0.000000 -0.006000 -0.006000 0.000000 -0.006000 -0.006000 0.000000 -0.006000 -0.006000 0.000000 -0.006000 0.000000 0.000000 -0.006000 0.000000 0.000000 -0.006000 0.006000 0.000000 -0.006000 0.006000 0.000000 -0.006000 0.006000 0.000000 -0.006000 0.006000 0.000000 -0.006000 0.006000 0.000000 -0.006000 0.006000 0.000000 -0.006000 0.006000 0.000000 -0.006000 0.006000 0.000000 -0.006000 0.009000 0.000000 -0.006000 -0.009000 0.000000 -0.006000 -0.006000 0.000000 -0.006000 -0.006000 0.000000 -0.006000 -0.006000 0.000000 -0.006000 -0.006000 0.000000 -0.006000 -0.006000 0.000000 -0.006000 -0.006000 0.000000 -0.006000 -0.006000 0.000000 -0.006000 -0.006000 0.000000 -0.006000 0.000000 0.000000 -0.006000 0.000000 0.000000 -0.006000 0.006000 0.000000 -0.006000 0.006000 0.000000 -0.006000 0.006000 0.000000 -0.006000 0.006000 0.000000 -0.006000 0.006000 0.000000 -0.006000 0.006000 0.000000 -0.006000 0.006000 0.000000 -0.006000 0.006000 0.000000 -0.006000 0.009000 0.000000 -0.006000 -0.009000 0.000000 -0.006000 -0.006000 0.000000 -0.006000 -0.006000 0.000000 -0.006000 -0.006000 0.000000 -0.006000 -0.006000 0.000000 -0.006000 -0.006000 0.000000 -0.006000 -0.006000 0.000000 -0.006000 -0.006000 0.000000 -0.006000 -0.006000 0.000000 -0.006000 0.000000 0.000000 -0.006000 0.000000 0.000000 -0.006000 0.006000 0.000000 -0.006000 0.006000 0.000000 -0.006000 0.006000 0.000000 -0.006000 0.006000 0.000000 -0.006000 0.006000 0.000000 -0.006000 0.006000 0.000000 -0.006000 0.006000 0.000000 -0.006000 0.006000 0.000000 -0.006000 0.009000 0.000000 -0.006000 -0.009000 0.000000 -0.006000 -0.006000 0.000000 -0.006000 -0.006000 0.000000 -0.006000 -0.006000 0.000000 -0.006000 -0.006000 0.000000 -0.006000 -0.006000 0.000000 -0.006000 -0.006000 0.000000 -0.006000 -0.006000 0.000000 -0.006000 -0.006000 0.000000 -0.006000 0.000000 0.000000 -0.006000 0.000000 0.000000 -0.006000 0.006000 0.000000 -0.006000 0.006000 0.000000 -0.006000 0.006000 0.000000 -0.006000 0.006000 0.000000 -0.006000 0.006000 0.000000 -0.006000 0.006000 0.000000 -0.006000 0.006000 0.000000 -0.006000 0.006000 0.000000 -0.006000 0.009000 0.000000 -0.006000 -0.009000 0.000000 -0.006000 -0.006000 0.000000 -0.006000 -0.006000 0.000000 -0.006000 -0.006000 0.000000 -0.006000 -0.006000 0.000000 -0.006000 -0.006000 0.000000 -0.006000 -0.006000 0.000000 -0.006000 -0.006000 0.000000 -0.006000 -0.006000 0.000000 -0.006000 0.000000 0.000000 -0.006000 0.000000 0.000000 -0.006000 0.006000 0.000000 -0.006000 0.006000 0.000000 -0.006000 0.006000 0.000000 -0.006000 0.006000 0.000000 -0.006000 0.006000 0.000000 -0.006000 0.006000 0.000000 -0.006000 0.006000 0.000000 0.000000 0.006000 0.000000 -0.006000 0.009000 0.000000 -0.006000 -0.009000 0.000000 -0.006000 -0.006000 0.000000 -0.006000 -0.006000 0.000000 -0.006000 -0.006000 0.000000 -0.006000 -0.006000 0.000000 -0.006000 -0.006000 0.000000 -0.006000 -0.006000 0.000000 -0.006000 -0.006000 0.000000 -0.006000 -0.006000 0.000000 -0.006000 0.000000 0.000000 -0.006000 0.000000 0.000000 -0.006000 0.006000 0.000000 -0.006000 0.006000 0.000000 -0.006000 0.006000 0.000000 -0.006000 0.006000 0.000000 -0.006000 0.006000 0.000000 -0.006000 0.006000 0.000000 -0.006000 0.006000 0.000000 0.000000 0.006000 0.000000 -0.006000 0.009000 0.000000 -0.006000 -0.009000 0.000000 -0.006000 -0.006000 0.000000 -0.006000 -0.006000 0.000000 -0.006000 -0.006000 0.000000 -0.006000 -0.006000 0.000000 -0.006000 -0.006000 0.000000 -0.006000 -0.006000 0.000000 -0.006000 -0.006000 0.000000 -0.006000 -0.006000 0.000000 -0.006000 0.000000 0.000000 -0.006000 0.000000 0.000000 -0.006000 0.006000 0.000000 -0.006000 0.006000 0.000000 -0.006000 0.006000 0.000000 -0.006000 0.006000 0.000000 -0.006000 0.006000 0.000000 -0.006000 0.006000 0.000000 -0.006000 0.006000 0.000000 -0.000000 0.006000 0.000000 -0.006000 0.009000 0.000000 -0.006000 -0.009000 0.000000 -0.006000 -0.006000 0.000000 -0.006000 -0.006000 0.000000 -0.006000 -0.006000 0.000000 -0.006000 -0.006000 0.000000 -0.006000 -0.006000 0.000000 -0.006000 -0.006000 0.000000 -0.006000 -0.006000 0.000000 -0.006000 -0.006000 0.000000 -0.006000 0.000000 0.000000 -0.006000 0.000000 0.000000 -0.006000 0.006000 0.000000 -0.006000 0.006000 0.000000 -0.006000 0.006000 0.000000 -0.006000 0.006000 0.000000 -0.006000 0.006000 0.000000 -0.006000 0.006000 0.000000 -0.006000 0.006000 0.000000 0.000000 0.006000 0.000000 -0.006000 0.009000 0.000000 -0.006000 -0.009000 0.000000 -0.006000 -0.006000 0.000000 -0.006000 -0.006000 0.000000 -0.006000 -0.006000 0.000000 -0.006000 -0.006000 0.000000 -0.006000 -0.006000 0.000000 -0.006000 -0.006000 0.000000 -0.006000 -0.006000 0.000000 -0.006000 -0.006000 0.000000 -0.006000 0.000000 0.000000 -0.006000 0.000000 0.000000 -0.000000 0.006000 0.000000 -0.006000 0.006000 0.000000 -0.006000 0.006000 0.000000 -0.006000 0.006000 0.000000 -0.006000 0.006000 0.000000 -0.006000 0.006000 0.000000 -0.006000 0.006000 0.000000 0.000000 0.006000 0.000000 0.000000 0.009000 0.000000 -0.006000 -0.009000 0.000000 -0.006000 -0.006000 0.000000 -0.006000 -0.006000 0.000000 -0.006000 -0.006000 0.000000 0.000000 -0.006000 0.000000 -0.006000 -0.006000 0.000000 -0.006000 -0.006000 0.000000 -0.006000 -0.006000 0.000000 -0.006000 -0.006000 0.000000 -0.006000 0.000000 0.000000 -0.000000 0.000000 0.000000 0.000000 0.006000 0.000000 -0.006000 0.006000 0.000000 -0.006000 0.006000 0.000000 -0.006000 0.006000 0.000000 -0.006000 0.006000 0.000000 -0.006000 0.006000 0.000000 -0.006000 0.006000 0.000000 0.006000 0.006000 0.000000 -0.000000 0.009000 0.000000 -0.006000 -0.009000 0.000000 -0.006000 -0.006000 0.000000 -0.006000 -0.006000 0.000000 -0.006000 -0.006000 0.000000 -0.000000 -0.006000 0.000000 -0.006000 -0.006000 0.000000 -0.006000 -0.006000 0.000000 -0.006000 -0.006000 0.000000 -0.006000 -0.006000 0.000000 -0.006000 -0.000000 0.000000 -0.000000 -0.000000 0.000000 -0.000000 0.006001 0.000000 -0.006000 0.006000 0.000000 -0.006000 0.006000 0.000000 -0.006000 0.006000 0.000000 -0.006000 0.006000 0.000000 -0.006000 0.006000 0.000000 -0.006000 0.006000 0.000000 0.006000 0.006000 0.000000 -0.000000 0.009000 0.000000 -0.006000 -0.009000 0.000000 -0.006000 -0.012000 0.000000 -0.006000 -0.011939 0.000000 -0.006000 -0.011969 0.000000 -0.000001 -0.005980 0.000000 0.000002 -0.005948 0.000000 -0.006001 0.000066 0.000000 -0.006001 0.000007 0.000000 0.000001 0.000022 0.000000 -0.000001 -0.005817 0.000000 0.000002 0.006117 0.000000 0.000002 0.000501 0.000000 -0.006000 0.006000 0.000000 -0.006000 0.006000 0.000000 -0.006000 0.006000 0.000000 -0.006000 0.006000 0.000000 -0.006000 0.006000 0.000000 -0.006002 0.006000 0.000000 0.012002 0.012295 0.000000 0.000000 0.009155 0.000000 -0.011862 -1.320020 0.000000 -0.011856 -1.239021 0.000000 -0.012968 -1.332077 0.000000 -0.010994 -1.260058 0.000000 -0.012933 -1.212044 0.000000 -0.011791 -1.302112 0.000000 -0.003264 -1.293122 0.000000 -0.019640 -1.248046 0.000000 -0.013798 -1.296856 0.000000 -0.018165 -1.241842 0.000000 0.004507 -1.201065 0.000000 -0.005464 -2.594212 0.000000 -0.027516 -8.216499 0.000000 -0.005809 -2.490055 0.000000 -0.008944 -8.050652 0.000000 -0.038200 -1.843084 0.000000 0.044089 -8.317585 0.000000 -0.092601 -0.741622 0.000000 -0.249191 -8.448689 0.000000 0.498411 0.577978 0.000000 -0.011896 -1.215023 0.000000 -0.011845 -1.314040 0.000000 -0.013392 -1.308015 0.000000 -0.004688 -1.248016 0.000000 -0.005932 -1.257045 0.000000 -0.002484 -1.272100 0.000000 -0.001340 -1.230097 0.000000 -0.011587 -1.314015 0.000000 -0.012364 -1.239818 0.000000 -0.013578 -1.304991 0.000000 0.009028 -1.338792 0.000000 0.000262 -2.814652 0.000000 -0.027646 -8.138761 0.000000 -0.007676 -3.125151 0.000000 -0.018868 -7.700678 0.000000 -0.030838 -3.283700 0.000000 0.034606 -7.280728 0.000000 -0.065321 -2.619407 0.000000 -0.265693 -7.479373 0.000000 0.639455 -2.621448 0.000000 -0.011897 -1.263022 0.000000 -0.011983 -1.284022 0.000000 -0.013381 -1.308053 0.000000 0.001468 -1.296023 0.000000 -0.013124 -1.227034 0.000000 0.000495 -1.266035 0.000000 0.008267 -1.266076 0.000000 -0.010307 -1.236176 0.000000 0.004435 -1.167763 0.000000 -0.012249 -1.352499 0.000000 0.007913 -1.242596 0.000000 -0.000557 -2.062876 0.000000 -0.026063 -8.762909 0.000000 -0.010499 -3.472660 0.000000 -0.011198 -7.355544 0.000000 -0.020501 -3.309501 0.000000 0.029732 -7.259644 0.000000 -0.062313 -2.691145 0.000000 -0.259013 -7.448079 0.000000 0.591692 -2.867830 0.000000 -0.011881 -1.335010 0.000000 -0.012312 -1.248009 0.000000 -0.006931 -1.332027 0.000000 -0.004821 -1.197056 0.000000 0.002084 -1.302074 0.000000 -0.002067 -1.289981 0.000000 -0.000170 -1.248061 0.000000 -0.008086 -1.257154 0.000000 0.004528 -1.275694 0.000000 -0.006895 -1.247796 0.000000 0.007317 -1.236419 0.000000 0.010526 -2.980934 0.000000 -0.030679 -8.041370 0.000000 -0.010322 -3.131722 0.000000 0.006074 -7.639391 0.000000 -0.025538 -3.076809 0.000000 0.041794 -7.506794 0.000000 -0.058929 -2.518088 0.000000 -0.230255 -7.766792 0.000000 0.620797 -2.617347 0.000000 -0.005998 -1.287058 0.000000 -0.006363 -1.314004 0.000000 -0.000568 -1.257057 0.000000 -0.004867 -1.181984 0.000000 -0.010760 -1.284028 0.000000 -0.001982 -1.227127 0.000000 0.001372 -1.259991 0.000000 -0.002300 -1.314138 0.000000 0.004495 -1.269930 0.000000 -0.001847 -1.265454 0.000000 0.001822 -1.345365 0.000000 0.012054 -2.721481 0.000000 -0.017428 -8.223032 0.000000 -0.003899 -3.149626 0.000000 -0.003110 -7.618086 0.000000 -0.010882 -3.231015 0.000000 0.035305 -7.359921 0.000000 -0.072502 -2.900982 0.000000 -0.20