<VTKFile type="UnstructuredGrid" version="0.1" byte_order="LittleEndian">
  <UnstructuredGrid>
    <Piece NumberOfPoints="2000" NumberOfCells="0">
      <Points>
        <DataArray name="Position" type="Float32" NumberOfComponents="3" format="ascii">
-0.008139 -0.004886 0.000000 -0.008139 0.996743 0.000000 -0.008139 1.996743 0.000000 -0.010213 2.996743 0.000000 -0.020321 3.996743 0.000000 -0.011363 4.996744 0.000000 -0.034992 5.996744 0.000000 -0.011384 6.996744 0.000000 -0.043399 7.996745 0.000000 -0.011383 9.000000 0.000000 -0.008597 10.000001 0.000000 -0.055255 11.003255 0.000000 -0.008127 12.003256 0.000000 -0.008127 13.003256 0.000000 -0.050454 14.003256 0.000000 -0.008121 15.003256 0.000000 -0.008121 16.003257 0.000000 -0.108928 17.003257 0.000000 -0.030363 18.003257 0.000000 -0.149107 19.004886 0.000000 0.995179 -0.004886 0.000000 0.992464 0.996699 0.000000 0.991972 1.996743 0.000000 0.990170 2.996787 0.000000 0.980092 3.996744 0.000000 0.990272 4.996744 0.000000 0.966929 5.996744 0.000000 0.991690 6.996744 0.000000 0.958324 7.996739 0.000000 0.991941 9.000000 0.000000 0.991664 10.000001 0.000000 0.944702 11.003255 0.000000 0.993953 12.003256 0.000000 0.995253 13.003256 0.000000 0.949656 14.003256 0.000000 0.995605 15.003256 0.000000 0.994999 16.003257 0.000000 0.892355 17.003257 0.000000 0.970680 18.003257 0.000000 0.850834 19.004886 0.000000 1.995293 -0.004886 0.000000 1.992631 0.996196 0.000000 1.995395 1.996743 0.000000 1.990196 2.996738 0.000000 1.983133 3.996743 0.000000 1.992141 4.996743 0.000000 1.968390 5.996739 0.000000 1.991720 6.996744 0.000000 1.958402 7.997216 0.000000 1.991962 9.000000 0.000000 1.991668 10.000001 0.000000 1.944736 11.003263 0.000000 1.993975 12.003256 0.000000 1.995274 13.003256 0.000000 1.949852 14.003255 0.000000 1.995640 15.003256 0.000000 1.995025 16.003257 0.000000 1.892363 17.003257 0.000000 1.970781 18.003258 0.000000 1.850908 19.004896 0.000000 2.995306 -0.004880 0.000000 2.992644 0.995227 0.000000 2.996038 1.995678 0.000000 2.990354 2.996315 0.000000 2.983734 3.996602 0.000000 2.992152 4.996905 0.000000 2.968807 5.997009 0.000000 2.993491 6.997813 0.000000 2.958436 7.998225 0.000000 2.992166 9.000000 0.000000 2.991688 10.000001 0.000000 2.945002 11.002909 0.000000 2.993976 12.003257 0.000000 2.995278 13.003266 0.000000 2.949851 14.003271 0.000000 2.995858 15.003257 0.000000 2.995025 16.003896 0.000000 2.892358 17.003257 0.000000 2.970863 18.003178 0.000000 2.850960 19.004598 0.000000 3.995436 -0.006471 0.000000 3.992751 0.994508 0.000000 3.996044 1.994567 0.000000 3.990382 2.994661 0.000000 3.983823 3.996032 0.000000 3.993480 4.998868 0.000000 3.969343 5.999147 0.000000 3.993500 6.999652 0.000000 3.958600 8.000059 0.000000 3.993491 9.000009 0.000000 3.991689 10.000016 0.000000 3.945440 11.000826 0.000000 3.995347 12.003256 0.000000 3.995997 13.003256 0.000000 3.949855 14.003256 0.000000 3.996160 15.003257 0.000000 3.995870 16.003257 0.000000 3.892402 17.003258 0.000000 3.970904 18.004337 0.000000 3.851157 19.006990 0.000000 4.995385 -0.017890 0.000000 4.992762 0.986338 0.000000 4.996731 1.990202 0.000000 4.990417 2.991737 0.000000 4.984602 3.992769 0.000000 4.993505 4.992894 0.000000 4.969797 5.992641 0.000000 4.993587 6.992833 0.000000 4.958593 7.992465 0.000000 4.993493 8.996723 0.000000 4.991706 9.999222 0.000000 4.945438 10.999149 0.000000 4.995347 12.003256 0.000000 4.995997 13.003256 0.000000 4.949899 14.003256 0.000000 4.996170 15.003256 0.000000 4.995870 16.003257 0.000000 4.892421 17.003256 0.000000 4.970926 18.003027 0.000000 4.851160 19.004190 0.000000 5.995360 -0.008069 0.000000 5.992765 0.993658 0.000000 5.996746 1.994305 0.000000 5.990466 2.994663 0.000000 5.985117 3.997041 0.000000 5.993495 4.997570 0.000000 5.969932 5.999351 0.000000 5.994094 6.999514 0.000000 5.958619 8.000677 0.000000 5.993497 9.000553 0.000000 5.992107 10.000981 0.000000 5.945408 11.002811 0.000000 5.995355 12.003256 0.000000 5.996005 13.003256 0.000000 5.950636 14.003254 0.000000 5.996173 15.003257 0.000000 5.995881 16.003257 0.000000 5.892460 17.003259 0.000000 5.970972 18.004509 0.000000 5.851324 19.006894 0.000000 6.995479 -0.006579 0.000000 6.992931 0.994343 0.000000 6.996746 1.995214 0.000000 6.990453 2.995754 0.000000 6.985253 3.995850 0.000000 6.994830 4.997719 0.000000 6.969942 5.998385 0.000000 6.996103 6.999124 0.000000 6.958608 7.999367 0.000000 6.996734 8.999999 0.000000 6.994190 10.000001 0.000000 6.945417 11.002849 0.000000 6.995368 12.003256 0.000000 6.996019 13.003275 0.000000 6.950736 14.003290 0.000000 6.996186 15.003257 0.000000 6.995890 16.003831 0.000000 6.892461 17.003256 0.000000 6.971049 18.003104 0.000000 6.851510 19.004501 0.000000 7.995487 -0.004869 0.000000 7.992943 0.995565 0.000000 7.996746 1.996296 0.000000 7.990436 2.996465 0.000000 7.985432 3.996636 0.000000 7.995314 4.996912 0.000000 7.970160 5.996837 0.000000 7.996401 6.997175 0.000000 7.958634 7.997787 0.000000 7.996740 8.999999 0.000000 7.994198 10.000001 0.000000 7.945465 11.003273 0.000000 7.996732 12.003256 0.000000 7.996732 13.003256 0.000000 7.950844 14.003253 0.000000 7.996529 15.003256 0.000000 7.996729 16.003257 0.000000 7.892453 17.003257 0.000000 7.971038 18.003260 0.000000 7.851534 19.004913 0.000000 8.995644 -0.004886 0.000000 8.992947 0.996498 0.000000 8.996747 1.996744 0.000000 8.990448 2.996749 0.000000 8.985448 3.996748 0.000000 8.996734 4.997011 0.000000 8.970192 5.996744 0.000000 8.996401 6.996744 0.000000 8.958757 7.996518 0.000000 8.996741 9.000000 0.000000 8.994203 10.000001 0.000000 8.945426 11.003255 0.000000 8.996743 12.003256 0.000000 8.996741 13.003256 0.000000 8.950981 14.003256 0.000000 8.996729 15.003256 0.000000 8.996741 16.003257 0.000000 8.892524 17.003257 0.000000 8.971109 18.003257 0.000000 8.851569 19.004885 0.000000 9.995788 -0.004886 0.000000 9.992951 0.996744 0.000000 9.996747 1.996743 0.000000 9.990302 2.996743 0.000000 9.985488 3.996743 0.000000 9.996741 4.996744 0.000000 9.970249 5.996744 0.000000 9.996732 6.996744 0.000000 9.958784 7.996749 0.000000 9.996741 9.000000 0.000000 9.994205 10.000001 0.000000 9.945431 11.003255 0.000000 9.996743 12.003256 0.000000 9.996743 13.003256 0.000000 9.951054 14.003256 0.000000 9.996741 15.003256 0.000000 9.996743 16.003257 0.000000 9.892557 17.003257 0.000000 9.971243 18.003257 0.000000 9.851539 19.004886 0.000000 10.995818 -0.004886 0.000000 10.993108 0.996743 0.000000 10.996747 1.996743 0.000000 10.990218 2.996743 0.000000 10.986191 3.996744 0.000000 10.996749 4.996744 0.000000 10.970475 5.996744 0.000000 10.996749 6.996744 0.000000 10.958779 7.996745 0.000000 10.996747 9.000000 0.000000 10.994205 10.000001 0.000000 10.945426 11.003255 0.000000 10.996744 12.003256 0.000000 10.996744 13.003256 0.000000 10.951534 14.003256 0.000000 10.996744 15.003256 0.000000 10.996744 16.003257 0.000000 10.892571 17.003257 0.000000 10.971192 18.003257 0.000000 10.851585 19.004886 0.000000 11.995820 -0.004886 0.000000 11.993257 0.996743 0.000000 11.996747 1.996743 0.000000 11.990221 2.996743 0.000000 11.986381 3.996743 0.000000 11.996749 4.996744 0.000000 11.970434 5.996744 0.000000 11.996749 6.996744 0.000000 11.958750 7.996745 0.000000 11.996747 9.000000 0.000000 11.994207 10.000001 0.000000 11.945469 11.003255 0.000000 11.996744 12.003256 0.000000 11.996744 13.003256 0.000000 11.952071 14.003256 0.000000 11.996744 15.003256 0.000000 11.996744 16.003257 0.000000 11.892568 17.003257 0.000000 11.971032 18.003257 0.000000 11.851802 19.004886 0.000000 12.995955 -0.004886 0.000000 12.993460 0.996743 0.000000 12.996748 1.996743 0.000000 12.990228 2.996743 0.000000 12.986383 3.996744 0.000000 12.996749 4.996744 0.000000 12.970277 5.996744 0.000000 12.996749 6.996744 0.000000 12.958745 7.996745 0.000000 12.996748 9.000000 0.000000 12.996730 10.000001 0.000000 12.945440 11.003255 0.000000 12.996744 12.003256 0.000000 12.996744 13.003256 0.000000 12.952323 14.003256 0.000000 12.996744 15.003256 0.000000 12.996744 16.003257 0.000000 12.892570 17.003257 0.000000 12.971170 18.003257 0.000000 12.851740 19.004886 0.000000 13.995956 -0.004886 0.000000 13.993615 0.996743 0.000000 13.996748 1.996743 0.000000 13.990189 2.996743 0.000000 13.986580 3.996744 0.000000 13.996749 4.996744 0.000000 13.970310 5.996744 0.000000 13.996749 6.996744 0.000000 13.958691 7.996745 0.000000 13.996748 9.000000 0.000000 13.996740 10.000001 0.000000 13.945496 11.003255 0.000000 13.996744 12.003256 0.000000 13.996744 13.003256 0.000000 13.952483 14.003256 0.000000 13.996744 15.003256 0.000000 13.996744 16.003257 0.000000 13.892510 17.003257 0.000000 13.971085 18.003257 0.000000 13.851704 19.004886 0.000000 14.995957 -0.004886 0.000000 14.993634 0.996743 0.000000 14.996748 1.996743 0.000000 14.990167 2.996743 0.000000 14.986772 3.996744 0.000000 14.996750 4.996744 0.000000 14.970297 5.996744 0.000000 14.996750 6.996744 0.000000 14.958872 7.996745 0.000000 14.996748 9.000000 0.000000 14.996740 10.000001 0.000000 14.945582 11.003255 0.000000 14.996748 12.003256 0.000000 14.996748 13.003256 0.000000 14.952667 14.003256 0.000000 14.996745 15.003256 0.000000 14.996745 16.003257 0.000000 14.892474 17.003257 0.000000 14.971394 18.003257 0.000000 14.851781 19.004886 0.000000 15.995966 -0.004886 0.000000 15.993767 0.996743 0.000000 15.996749 1.996743 0.000000 15.990173 2.996743 0.000000 15.986823 3.996744 0.000000 15.996750 4.996744 0.000000 15.970301 5.996744 0.000000 15.996750 6.996744 0.000000 15.958902 7.996745 0.000000 15.996749 9.000000 0.000000 15.996743 10.000001 0.000000 15.945602 11.003255 0.000000 15.996750 12.003256 0.000000 15.996750 13.003256 0.000000 15.953033 14.003256 0.000000 15.996745 15.003256 0.000000 15.996745 16.003257 0.000000 15.892453 17.003257 0.000000 15.971199 18.003257 0.000000 15.851701 19.004886 0.000000 16.996106 -0.004886 0.000000 16.993778 0.996743 0.000000 16.996749 1.996743 0.000000 16.990301 2.996743 0.000000 16.986966 3.996744 0.000000 16.996750 4.996744 0.000000 16.970267 5.996744 0.000000 16.996750 6.996744 0.000000 16.958956 7.996745
[...]
      <PointData Vectors="vector">
        <DataArray type="Float32" Name="Velocity" NumberOfComponents="3" format="ascii">
-0.015000 -0.009000 0.000000 -0.015000 -0.006000 0.000000 -0.015000 -0.006000 0.000000 -0.189005 -0.006000 0.000000 -0.399076 -0.006000 0.000000 -0.021000 -0.006000 0.000000 -0.477059 -0.006000 0.000000 -0.021000 -0.006000 0.000000 -0.543009 -0.006000 0.000000 -0.021000 0.000000 0.000000 -0.021000 0.000000 0.000000 -0.762021 0.006000 0.000000 -0.015000 0.006000 0.000000 -0.015000 0.006000 0.000000 -0.543012 0.006000 0.000000 -0.015000 0.006000 0.000000 -0.015000 0.006000 0.000000 -0.939021 0.006000 0.000000 -0.561004 0.006000 0.000000 -1.056017 0.009000 0.000000 -0.066000 -0.009000 0.000000 -0.119993 -0.011963 0.000000 -0.018004 -0.006000 0.000000 -0.204001 0.000004 0.000000 -0.450018 -0.006000 0.000000 -0.018000 -0.006000 0.000000 -0.420048 -0.005999 0.000000 -0.018000 -0.006000 0.000000 -0.528000 -0.006152 0.000000 -0.018000 0.000000 0.000000 -0.018000 0.000000 0.000000 -0.674998 0.005997 0.000000 -0.018000 0.006000 0.000000 -0.018000 0.006000 0.000000 -0.534013 0.006000 0.000000 -0.018000 0.006000 0.000000 -0.018000 0.006000 0.000000 -0.930004 0.006000 0.000000 -0.498004 0.006000 0.000000 -1.125036 0.008997 0.000000 -0.060000 -0.009000 0.000000 -0.113999 -0.011823 0.000000 -0.017979 -0.005995 0.000000 -0.294043 -0.005763 0.000000 -0.311941 -0.005972 0.000000 -0.017997 -0.006000 0.000000 -0.371986 -0.006085 0.000000 -0.018000 -0.006000 0.000000 -0.504016 -0.001327 0.000000 -0.018000 0.000000 0.000000 -0.018000 0.000000 0.000000 -0.606051 0.006282 0.000000 -0.018000 0.006000 0.000000 -0.018000 0.006000 0.000000 -0.512988 0.005988 0.000000 -0.018000 0.006000 0.000000 -0.018000 0.006000 0.000000 -0.981022 0.006000 0.000000 -0.612006 0.006032 0.000000 -1.098032 0.009215 0.000000 -0.060000 -0.008751 0.000000 -0.114000 -0.011946 0.000000 -0.011971 -0.011985 0.000000 -0.162041 -0.010950 0.000000 -0.252100 -0.011007 0.000000 -0.017983 -0.000009 0.000000 -0.426071 -0.002952 0.000000 -0.011998 -0.000007 0.000000 -0.551994 -0.000865 0.000000 -0.018000 -0.000000 0.000000 -0.018000 -0.000000 0.000000 -0.678001 0.004522 0.000000 -0.017990 0.006000 0.000000 -0.017966 0.006000 0.000000 -0.531064 0.006028 0.000000 -0.017967 0.006000 0.000000 -0.018003 0.012000 0.000000 -0.999004 0.005996 0.000000 -0.456005 0.004000 0.000000 -1.062030 0.005078 0.000000 -0.053987 -0.012912 0.000000 -0.107988 -0.009131 0.000000 -0.011985 -0.011912 0.000000 -0.245996 -0.010532 0.000000 -0.245947 -0.002761 0.000000 -0.012013 0.000042 0.000000 -0.449960 0.001085 0.000000 -0.011909 0.012027 0.000000 -0.492043 0.014419 0.000000 -0.012000 0.000032 0.000000 -0.018000 0.000039 0.000000 -0.627023 -0.000982 0.000000 -0.012000 0.006000 0.000000 -0.012000 0.006000 0.000000 -0.534000 0.005985 0.000000 -0.012000 0.006000 0.000000 -0.012000 0.006000 0.000000 -0.936019 0.006009 0.000000 -0.468011 0.010431 0.000000 -0.984082 0.023463 0.000000 -0.054000 -0.035604 0.000000 -0.107999 -0.033599 0.000000 -0.006000 -0.018105 0.000000 -0.209949 -0.045187 0.000000 -0.215977 -0.023601 0.000000 -0.011756 -0.024064 0.000000 -0.504874 -0.040548 0.000000 -0.009724 -0.036043 0.000000 -0.540050 -0.040985 0.000000 -0.012000 -0.006065 0.000000 -0.018000 -0.000093 0.000000 -0.750206 -0.013592 0.000000 -0.012000 0.006000 0.000000 -0.012000 0.006000 0.000000 -0.546033 0.005999 0.000000 -0.012000 0.006000 0.000000 -0.012000 0.006000 0.000000 -1.025988 0.005987 0.000000 -0.522030 0.000301 0.000000 -1.158128 -0.000794 0.000000 -0.054014 -0.012687 0.000000 -0.108013 -0.008542 0.000000 -0.006000 -0.011922 0.000000 -0.135084 -0.010057 0.000000 -0.150078 0.002673 0.000000 -0.012012 -0.005958 0.000000 -0.480235 0.002654 0.000000 -0.017822 0.012050 0.000000 -0.645210 0.014245 0.000000 -0.011987 0.006033 0.000000 -0.012003 0.000054 0.000000 -0.693655 0.013214 0.000000 -0.011999 0.006000 0.000000 -0.012000 0.006000 0.000000 -0.497978 0.005947 0.000000 -0.012000 0.006000 0.000000 -0.012000 0.006000 0.000000 -0.978031 0.006015 0.000000 -0.486030 0.012912 0.000000 -1.043979 0.025332 0.000000 -0.047999 -0.015054 0.000000 -0.102000 -0.012400 0.000000 -0.006000 -0.011997 0.000000 -0.143963 -0.011537 0.000000 -0.192011 -0.009454 0.000000 -0.006018 -0.000009 0.000000 -0.462032 0.002087 0.000000 -0.018000 0.000018 0.000000 -0.608875 0.002525 0.000000 -0.006000 -0.000000 0.000000 -0.012000 -0.000000 0.000000 -0.641282 0.001810 0.000000 -0.011973 0.006000 0.000000 -0.011959 0.006000 0.000000 -0.498091 0.006116 0.000000 -0.011955 0.006000 0.000000 -0.012002 0.012000 0.000000 -0.927035 0.005990 0.000000 -0.519086 0.002201 0.000000 -1.128007 0.003115 0.000000 -0.048001 -0.008386 0.000000 -0.102000 -0.011842 0.000000 -0.006000 -0.011980 0.000000 -0.177023 -0.011110 0.000000 -0.192009 -0.010285 0.000000 -0.017901 0.000000 0.000000 -0.492208 -0.004212 0.000000 -0.011968 -0.000034 0.000000 -0.468345 -0.002017 0.000000 -0.006000 0.000000 0.000000 -0.012000 0.000000 0.000000 -0.759202 0.006767 0.000000 -0.006000 0.006000 0.000000 -0.006000 0.006000 0.000000 -0.510010 0.005936 0.000000 -0.006000 0.006000 0.000000 -0.006000 0.006000 0.000000 -0.987020 0.006002 0.000000 -0.567008 0.006125 0.000000 -1.140160 0.009626 0.000000 -0.042000 -0.009000 0.000000 -0.102001 -0.011198 0.000000 -0.005996 -0.006000 0.000000 -0.165008 -0.005675 0.000000 -0.180038 -0.005985 0.000000 -0.005982 -0.000000 0.000000 -0.497865 -0.006026 0.000000 -0.012000 -0.006002 0.000000 -0.575571 -0.010161 0.000000 -0.006000 0.000000 0.000000 -0.012000 0.000000 0.000000 -0.615177 0.005982 0.000000 -0.006000 0.006000 0.000000 -0.006000 0.006000 0.000000 -0.498011 0.006002 0.000000 -0.006000 0.006000 0.000000 -0.006000 0.006000 0.000000 -0.930000 0.006000 0.000000 -0.512561 0.005998 0.000000 -1.167059 0.008967 0.000000 -0.036001 -0.009000 0.000000 -0.101999 -0.005957 0.000000 -0.006000 -0.006000 0.000000 -0.113966 -0.006007 0.000000 -0.107959 -0.006007 0.000000 -0.006000 -0.006000 0.000000 -0.485985 -0.006000 0.000000 -0.006000 -0.006000 0.000000 -0.537001 -0.005839 0.000000 -0.006000 -0.000000 0.000000 -0.012000 0.000000 0.000000 -0.590766 0.006000 0.000000 -0.006000 0.006000 0.000000 -0.006000 0.006000 0.000000 -0.486010 0.006000 0.000000 -0.006000 0.006000 0.000000 -0.006000 0.006000 0.000000 -0.918017 0.006000 0.000000 -0.679715 0.006000 0.000000 -1.100832 0.009001 0.000000 -0.035999 -0.009000 0.000000 -0.096000 -0.006000 0.000000 -0.006000 -0.006000 0.000000 -0.026931 -0.006000 0.000000 -0.222007 -0.006000 0.000000 -0.006000 -0.006000 0.000000 -0.525208 -0.006000 0.000000 -0.006000 -0.006000 0.000000 -0.675312 -0.006005 0.000000 -0.006000 0.000000 0.000000 -0.012000 0.000000 0.000000 -0.560984 0.006000 0.000000 -0.006000 0.006000 0.000000 -0.006000 0.006000 0.000000 -0.473979 0.006000 0.000000 -0.006000 0.006000 0.000000 -0.006000 0.006000 0.000000 -0.927024 0.006000 0.000000 -0.588268 0.006000 0.000000 -1.050093 0.009000 0.000000 -0.036001 -0.009000 0.000000 -0.090000 -0.006000 0.000000 -0.006000 -0.006000 0.000000 -0.078001 -0.006000 0.000000 -0.162000 -0.006000 0.000000 -0.006000 -0.006000 0.000000 -0.498073 -0.006000 0.000000 -0.006000 -0.006000 0.000000 -0.539783 -0.006000 0.000000 -0.006000 0.000000 0.000000 -0.012000 0.000000 0.000000 -0.717513 0.006000 0.000000 -0.006000 0.006000 0.000000 -0.006000 0.006000 0.000000 -0.468015 0.006000 0.000000 -0.006000 0.006000 0.000000 -0.006000 0.006000 0.000000 -0.945025 0.006000 0.000000 -0.578053 0.006000 0.000000 -1.191097 0.009000 0.000000 -0.029999 -0.009000 0.000000 -0.084001 -0.006000 0.000000 -0.006000 -0.006000 0.000000 -0.051000 -0.006000 0.000000 -0.191981 -0.006000 0.000000 -0.006000 -0.006000 0.000000 -0.483273 -0.006000 0.000000 -0.006000 -0.006000 0.000000 -0.468107 -0.006000 0.000000 -0.006000 0.000000 0.000000 -0.006000 0.000000 0.000000 -0.674788 0.006000 0.000000 -0.006000 0.006000 0.000000 -0.006000 0.006000 0.000000 -0.450043 0.006000 0.000000 -0.006000 0.006000 0.000000 -0.006000 0.006000 0.000000 -0.945078 0.006000 0.000000 -0.322441 0.006000 0.000000 -1.158560 0.009000 0.000000 -0.030000 -0.009000 0.000000 -0.077999 -0.006000 0.000000 -0.006000 -0.006000 0.000000 -0.192004 -0.006000 0.000000 -0.215996 -0.006000 0.000000 -0.006000 -0.006000 0.000000 -0.392749 -0.006000 0.000000 -0.006000 -0.006000 0.000000 -0.572992 -0.006000 0.000000 -0.006000 0.000000 0.000000 -0.006000 0.000000 0.000000 -0.635489 0.006000 0.000000 -0.006000 0.006000 0.000000 -0.006000 0.006000 0.000000 -0.443922 0.006000 0.000000 -0.006000 0.006000 0.000000 -0.006000 0.006000 0.000000 -0.887926 0.006000 0.000000 -0.613871 0.006000 0.000000 -1.088889 0.009000 0.000000 -0.030000 -0.009000 0.000000 -0.078000 -0.006000 0.000000 -0.006000 -0.006000 0.000000 -0.062991 -0.006000 0.000000 -0.132000 -0.006000 0.000000 -0.006000 -0.006000 0.000000 -0.434879 -0.006000 0.000000 -0.006000 -0.006000 0.000000 -0.564024 -0.006000 0.000000 -0.006000 0.000000 0.000000 -0.006000 0.000000 0.000000 -0.612048 0.006000 0.000000 -0.006000 0.006000 0.000000 -0.006000 0.006000 0.000000 -0.438007 0.006000 0.000000 -0.006000 0.006000 0.000000 -0.006000 0.006000 0.000000 -0.888087 0.006000 0.000000 -0.471525 0.006000 0.000000 -1.113338 0.009000 0.000000 -0.030000 -0.009000 0.000000 -0.072001 -0.006000 0.000000 -0.006000 -0.006000 0.000000 -0.090005 -0.006000 0.000000 -0.126000 -0.006000 0.000000 -0.006000 -0.006000 0.000000 -0.429103 -0.006000 0.000000 -0.006000 -0.006000 0.000000 -0.624160 -0.006000 0.000000 -0.006000 0.000000 0.000000 -0.006000 0.000000 0.000000 -0.643072 0.006000 0.000000 -0.006000 0.006000 0.000000 -0.006000 0.006000 0.000000 -0.426170 0.006000 0.000000 -0.006000 0.006000 0.000000 -0.006000 0.006000 0.000000 -0.930072 0.006000 0.000000 -0.653090 0.006000 0.000000 -1.154811 0.009000 0.000000 -0.024000 -0.009000 0.000000 -0.071999 -0.006000 0.000000 -0.006000 -0.006000 0.000000 -0.173999 -0.006000 0.000000 -0.144087 -0.006000 0.000000 -0.006000 -0.006000 0.000000 -0.473929 -0.006000 0.000000 -0.006000 -0.006000 0.000000 -0.630227 -0.006000 0.000000 -0.006000 0.000000 0.000000 -0.006000 0.000000 0.000000 -0.551723 0.006000 0.000000 -0.006000 0.006000 0.000000 -0.006000 0.006000 0.000000 -0.425951 0.006000 0.000000 -0.006000 0.006000 0.000000 -0.006000 0.006000 0.000000 -1.002243 0.006000 0.000000 -0.585929 0.006000 0.000000 -1.068062 0.009000 0.000000 -0.024000 -0.009000 0.000000 -0.072001 -0.006000 0.000000 -0.006000 -0.006000 0.000000 -0.125996 -0.006000 0.000000 -0.131913 -0.006000 0.000000 -0.006000 -0.006000 0.000000 -0.453202 -0.006000 0.000000 -0.006000 -0.006000 0.000000 -0.645280 -0.006000 0.000000 -0.006000 0.000000 0.000000 -0.006000 0.000000 0.000000 -0.425999 0.006000 0.000000 -0.006000 0.006000 0.000000 -0.006000 0.006000 0.000000 -0.408018 0.006000 0.000000 -0.006000 0.006000 0.000000 -0.006000 0.006000 0.000000 -0.990035 0.006000 0.000000 -0.615696 0.006000 0.000000 -0.939396 0.009000 0.000000 -0.024000 -0.009000 0.000000 -0.072000 -0.006000 0.000000 -0.006000 -0.006000 0.000000 -0.120013 -0.006000 0.000000 -0.090014 -0.006000 0.000000 -0.006000 -0.006000 0.000000 -0.479785 -0.006000 0.000000 -0.006000 -0.006000 0.000000 -0.522243 -0.006000 0.000000 -0.006000 0.000000 0.000000 -0.006000 0.000000 0.000000 -0.477685 0.006000 0.000000 -0.006000 0.006000 0.000000 -0.006000 0.006000 0.000000 -0.408042 0.006000 0.000000 -0.006000 0.006000 0.000000 -0.006000 0.006000 0.000000 -1.004507 0.006000 0.000000 -0.306702 0.006000 0.000000 -1.051678 0.009000 0.000000 -0.024000 -0.009000 0.000000 -0.072002 -0.006000 0.000000 -0.006000 -0.006000 0.000000 -0.120004 -0.006000 0.000000 -0.131982 -0.006000 0.000000 -0.006000 -0.006000 0.000000 -0.567447 -0.006000 0.000000 -0.006000 -0.006000 0.000000 -0.582836 -0.006000 0.000000 -0.006000 0.000000 0.000000 -0.006000 0.000000 0.000000 -0.452029 0.006000 0.000000 -0.006000 0.006000 0.000000 -0.006000 0.006000 0.000000 -0.402048 0.006000 0.000000 -0.006000 0.006000 0.000000 -0.006000 0.006000 0.000000 -0.911997 0.006000 0.000000 -0.318001 0.006000 0.000000 -0.962981 0.009000 0.000000 -0.024000 -0.009000 0.000000 -0.072002 -0.006000 0.000000 -0.006000 -0.006000 0.000000 -0.132009 -0.006000 0.000000 -0.159087 -0.006000 0.000000 -0.006000 -0.006000 0.000000 -0.390122 -0.006000 0.000000 -0.006000 -0.006000 0.000000 -0.574709 -0.006000 0.000000 -0.006000 0.000000 0.000000 -0.006000 0.000000 0.000000 -0.589795 0.006000 0.000000 -0.006000 0.006000 0.000000 -0.000000 0.006000 0.000000 -0.383972 0.006000 0.000000 -0.006000 0.006000 0.000000 -0.000000 0.006000 0.000000 -0.994052 0.006000 0.000000 -0.274206 0.006000 0.000000 -1.034656 0.009000 0.000000 -0.024000 -0.009000 0.000000 -0.065996 -0.006000 0.000000 -0.006000 -0.006000 0.000000 -0.126004 -0.006000 0.000000 -0.179921 -0.006000 0.000000 -0.006000 -0.006000 0.000000 -0.527812 -0.006000 0.000000 -0.006000 -0.006000 0.000000 -0.504673 -0.006000 0.000000 -0.006000 0.000000 0.000000 -0.006000 0.000000 0.000000 -0.716781 0.006000 0.000000 -0.000000 0.006000 0.000000 -0.000000 0.006000 0.000000 -0.390110 0.006000 0.000000 0.000000 0.006000 0.000000 0.000000 0.006000 0.000000 -0.966195 0.006000 0.000000 -0.296360 0.006000 0.000000 -0.984885 0.009001 0.000000 -0.018000 -0.009000 0.000000 -0.048004 -0.006000 0.000000 -0.006000 -0.006000 0.000000 -0.102034 -0.006000 0.000000 -0.144019 -0.006000 0.000000 -0.006000 -0.006000 0.000000 -0.504021 -0.006000 0.000000 -0.006000 -0.006000 0.000000 -0.600139 -0.005998 0.000000 -0.006000 0.000000 0.000000 -0.006000 0.000000 0.000000 -0.570224 0.005993 0.000000 -0.000000 0.006000 0.000000 -0.000000 0.006000 0.000000 -0.378025 0.006000 0.000000 0.000000 0.006000 0.000000 0.000000 0.006000 0.000000 -0.996266 0.005991 0.000000 -0.306677 0.005999 0.000000 -0.942145 0.008960 0.000000 -0.018000 -0.009000 0.000000 -0.048002 -0.006000 0.000000 -0.006000 -0.006000 0.000000 -0.078144 -0.006000 0.000000 -0.504303 -0.006009 0.000000 -0.006000 -0.006000 0.000000 -0.546176 -0.005995 0.000000 -0.006000 -0.006000 0.000000 -0.492243 -0.006047 0.000000 -0.006000 0.000000 0.000000 -0.006000 0.000000 0.000000 -0.513648 0.006175 0.000000 -0.000000 0.006000 0.000000 -0.000000 0.006000 0.000000 -0.330202 0.006000 0.000000 -0.000000 0.006000 0.000000 0.000000 0.006000 0.000000 -0.919048 0.006232 0.000000 -0.319585 0.006047 0.000000 -0.833492 0.009759 0.000000 -0.018000 -0.009000 0.000000 -0.030005 -0.011929 0.000000 -0.005962 -0.012000 0.000000 0.065930 -0.006018 0.000000 -0.415708 -0.006079 0.000000 -0.005940 0.006000 0.000000 -0.468862 -0.006489 0.000000 -0.000000 -0.006000 0.000000 -0.606153 -0.005329 0.000000 -0.006000 0.000000 0.000000 -0.006000 0.000000 0.000000 -0.207150 0.003753 0.000000 -0.000000 0.006000 0.000000 -0.000000 0.006000 0.000000 -0.317985 0.005976 0.000000 0.000000 0.006000 0.000000 -0.000000 0.006000 0.000000 -0.964890 0.000822 0.000000 -0.381097 0.004242 0.000000 -0.891508 -0.001127 0.000000 -0.012000 -0.009000 0.000000 -0.030019 -0.017045 0.000000 0.000026 -0.006000 0.000000 0.104838 -0.011103 0.000000 -0.317254 0.000572 0.000000 -0.005868 0.000000 0.000000 -0.426515 0.001907 0.000000 -0.000000 -0.006002 0.000000 -0.528212 -0.006889 0.000000 -0.006000 0.000000 0.000000 -0.006000 0.000000 0.000000 -0.140929 0.021973 0.000000 -0.000000 0.006000 0.000000 -0.000000 0.006000 0.000000 -0.504602 0.007700 0.000000 0.006000 0.005997 0.000000 -0.000000 0.006000 0.000000 -1.033937 0.077701 0.000000 0.194448 0.037591 0.000000 -0.652308 0.085002 0.000000 -0.012006 -0.009062 0.000000 -0.030001 -0.013116 0.000000 0.000023 -0.017999 0.000000 0.107894 -0.011120 0.000000 -0.307041 -0.026391 0.000000 0.000699 -0.029993 0.000000 -0.504529 -0.037365 0.000000 0.001037 -0.036021 0.000000 -0.595250 -0.047399 0.000000 -0.006000 0.000000 0.000000 -0.000000 0.000000 0.000000 -0.267218 -0.068913 0.000000 -0.000001 -0.126002 0.000000 0.014809 -0.107835 0.000000 -0.305172 -0.023423 0.000000 0.014461 -0.105173 0.000000 0.059193 -0.070965 0.000000 1.999315 0.113697 0.000000 0.977657 -0.264527 0.000000 1.156595 -0.213984 0.000000 0.043789 0.048334 0.000000 -0.006808 0.041980 0.000000 0.006097 0.065999 0.000000 0.146772 0.184208 0.000000 -0.451950 0.203713 0.000000 0.001373 0.239995 0.000000 -0.567767 0.481312 0.000000 0.008782 0.485955 0.000000 -0.756702 0.366314 0.000000 0.013025 0.329686 0.000000 0.000892 0.408006 0.000000 -0.741507 0.345254 0.000000 0.019433 0.209699 0.000000 0.008297 0.294047 0.000000 -0.265231 0.176561 0.000000 0.013841 0.257908 0.000000 0.012088 0.174018 0.000000 -1.082317 0.510912 0.000000 1.107582 1.418088 0.000000 3.761110 1.422283 0.000000 0.258263 -1.378423 0.000000 0.119668 -1.205934 0.000000 0.000685 -1.236044 0.000000 0.175185 -1.132370 0.000000 -0.356039 -1.156845 0.000000 0.118797 -1.102991 0.000000 -2.398997 -1.638731 0.000000 0.356871 -1.394617 0.000000 -3.168897 -1.432432 0.000000 0.257163 -2.042337 0.000000 0.396562 -1.789387 0.000000 -1.020577 -2.090102 0.000000 0.315000 -2.044251 0.000000 0.194028 -1.958605 0.000000 -0.617501 -1.871985 0.000000 -0.213405 -1.646914 0.000000 0.844646 -1.422666 0.000000 1.074611 -1.035530 0.000000 0.959929 2.986133 0.000000 2.513862 1.351019 0.000000 -0.010584 -9.711135 0.000000 -0.038460 -9.610739 0.000000 -0.504754 -7.657589 0.000000 0.299553 -6.733376 0.000000 -0.028734 -2.737553 0.000000 -1.287903 -6.304320 0.000000 2.666322 -1.953428 0.000000 -0.768191 -0.214429 0.000000 3.574797 -5.296898 0.000000 -1.274945 -1.912418 0.000000 1.919843 0.313853 0.000000 0.800672 0.028648 0.000000 -2.356292 -0.428578 0.000000 2.754832 2.103749 0.000000 0.088531 2.704563 0.000000 -2.992870 4.736480 0.000000 2.142073 1.925918 0.000000 -0.010856 2.173668 0.000000 1.674307 -2.744268 0.000000 7.045186 -2.237465 0.000000 -0.015488 -11.361268 0.000000 -0.044719 -11.428095 0.000000 -0.372670 -7.815049 0.000000 0.442999 -5.659638 0.000000 -0.195571 -8.906444 0.000000 -0.870973 -4.989560 0.000000 2.167460 -4.858316 0.000000 2.320582 0.949342 0.000000 1.646180 -1.559115 0.000000 -3.379341 -1.617777 0.000000 0.849357 -0.265673 0.000000 4.338734 -2.566520 0.000000 0.508736 1.719245 0.000000 1.088857 -0.163486 0.000000 -1.411704 -3.229883 0.000000 -1.341490 5.197505 0.000000 -0.178238 0.941411 0.000000 7.352481 8.858567 0.000000 2.710553 -0.606441 0.000000 -3.802787 -4.438089 0.000000 -0.019497 -11.160236 0.000000 -0.195582 -11.206859 0.000000 -0.254689 -7.597318 0.000000 0.460219 -5.681461 0.000000 -0.161565 -8.193189 0.000000 -1.001715 -4.045115 0.000000 2.446015 -4.658169 0.000000 -1.657010 -6.846219 0.000000 1.984656 -2.476352 0.000000 0.933897 -7.016741 0.000000 -0.050810 -3.589373 0.000000 4.175783 -4.268898 0.000000 -2.474071 -5.126671 0.000000 1.225720 -4.421989 0.000000 -2.346432 -13.753587 0.000000 -0.124311 -8.075552 0.000000 -0.739136 -10.956753 0.000000 0.032702 -0.463363 0.000000 10.086465 -15.067460 0.000000 4.930925 -18.712451 0.000000 -0.014321 -11.235478 0.000000 0.141558 -11.080378 0.000000 -0.144127 -8.160093 0.000000 0.481540 -5.158374 0.000000 0.114439 -8.227968 0.000000 -1.067126 -4.173927 0.000000 2.176424 -3.370084 0.000000 -1.639490 -6.642488 0.000000 2.471884 -3.040184 0.000000 -3.726825 -5.068085 0.000000 -1.179348 -4.483270 0.000000 3.370547 -9.821877 0.000000 5.926178 -3.342381 0.000000 1.140564 -1.541186 0.000000 -0.568617 -13.218892 0.000000 0.658147 -5.647513 0.000000 -1.087152 -5.895183 0.000000 -0.775117 -4.883073 0.000000 6.414108 -21.048867 0.000000 11.172017 -1.927130 0.000000 -0.010264 -11.391358 0.000000 0.206678 -11.288150 0.000000 0.032179 -7.687295 0.000000 0.621347 -5.295768 0.000000 0.041611 -8.534486 0.000000 -1.164287 -4.292446 0.000000 2.659828 -2.466041 0.000000 -1.043676 -7.297504 0.000000 2.048736 -0.536861 0.000000 -3.733565 -6.520929 0.000000 0.555081 -4.543409 0.000000 4.399453 -8.016115 0.000000 1.399830 -3.500979 0.000000 -0.724604 -0.209070 0.000000 3.507409 -13.130135 0.000000 0.108778 -3.814576 0.000000 -3.974960 -6.332499 0.000000 -5.186151 -1.097494 0.000000 6.133702 -4.374321 0.000000 5.084546 -20.713074 0.000000