<VTKFile type="UnstructuredGrid" version="0.1" byte_order="LittleEndian">
  <UnstructuredGrid>
    <Piece NumberOfPoints="2000" NumberOfCells="0">
      <Points>
        <DataArray name="Position" type="Float32" NumberOfComponents="3" format="ascii">
-0.000489 -0.000296 0.000000 -0.000489 0.999803 0.000000 -0.000489 1.999803 0.000000 -0.000489 2.999803 0.000000 -0.000519 3.999804 0.000000 -0.000653 4.999804 0.000000 -0.000638 5.999804 0.000000 -0.000674 6.999804 0.000000 -0.000480 7.999805 0.000000 -0.000673 9.000000 0.000000 -0.000476 10.000001 0.000000 -0.000475 11.000195 0.000000 -0.000477 12.000196 0.000000 -0.000477 13.000196 0.000000 -0.000477 14.000196 0.000000 -0.000471 15.000196 0.000000 -0.000471 16.000197 0.000000 -0.000471 17.000197 0.000000 -0.000471 18.000197 0.000000 -0.000471 19.000296 0.000000 0.999800 -0.000296 0.000000 0.999800 0.999803 0.000000 0.999800 1.999803 0.000000 0.999800 2.999803 0.000000 0.999526 3.999804 0.000000 0.999452 4.999804 0.000000 0.999522 5.999804 0.000000 0.999611 6.999804 0.000000 0.999795 7.999805 0.000000 0.999612 9.000000 0.000000 0.999793 10.000001 0.000000 0.999793 11.000195 0.000000 0.999794 12.000196 0.000000 0.999794 13.000196 0.000000 0.999794 14.000196 0.000000 0.999791 15.000196 0.000000 0.999791 16.000197 0.000000 0.999791 17.000197 0.000000 0.999791 18.000197 0.000000 0.999791 19.000296 0.000000 1.999803 -0.000296 0.000000 1.999803 0.999803 0.000000 1.999803 1.999803 0.000000 1.999803 2.999803 0.000000 1.999799 3.999804 0.000000 1.999603 4.999804 0.000000 1.999596 5.999804 0.000000 1.999615 6.999804 0.000000 1.999803 7.999805 0.000000 1.999615 9.000000 0.000000 1.999803 10.000001 0.000000 1.999803 11.000195 0.000000 1.999803 12.000196 0.000000 1.999803 13.000196 0.000000 1.999803 14.000196 0.000000 1.999803 15.000196 0.000000 1.999803 16.000197 0.000000 1.999803 17.000197 0.000000 1.999803 18.000197 0.000000 1.999803 19.000296 0.000000 2.999803 -0.000296 0.000000 2.999803 0.999803 0.000000 2.999803 1.999803 0.000000 2.999803 2.999803 0.000000 2.999802 3.999804 0.000000 2.999611 4.999804 0.000000 2.999613 5.999804 0.000000 2.999619 6.999804 0.000000 2.999803 7.999805 0.000000 2.999619 9.000000 0.000000 2.999803 10.000001 0.000000 2.999803 11.000195 0.000000 2.999803 12.000196 0.000000 2.999803 13.000196 0.000000 2.999803 14.000196 0.000000 2.999803 15.000196 0.000000 2.999803 16.000197 0.000000 2.999803 17.000197 0.000000 2.999803 18.000197 0.000000 2.999803 19.000296 0.000000 3.999803 -0.000296 0.000000 3.999803 0.999803 0.000000 3.999803 1.999803 0.000000 3.999803 2.999803 0.000000 3.999802 3.999804 0.000000 3.999613 4.999804 0.000000 3.999618 5.999804 0.000000 3.999797 6.999804 0.000000 3.999803 7.999805 0.000000 3.999797 9.000000 0.000000 3.999803 10.000001 0.000000 3.999803 11.000195 0.000000 3.999803 12.000196 0.000000 3.999803 13.000196 0.000000 3.999803 14.000196 0.000000 3.999803 15.000196 0.000000 3.999803 16.000197 0.000000 3.999803 17.000197 0.000000 3.999803 18.000197 0.000000 3.999803 19.000296 0.000000 4.999804 -0.000989 0.000000 4.999804 0.999398 0.000000 4.999804 1.999419 0.000000 4.999804 2.999425 0.000000 4.999803 3.999597 0.000000 4.999614 4.999609 0.000000 4.999649 5.999618 0.000000 4.999802 6.999630 0.000000 4.999803 7.999804 0.000000 4.999802 8.999804 0.000000 4.999803 9.999804 0.000000 4.999803 11.000001 0.000000 4.999804 12.000196 0.000000 4.999804 13.000196 0.000000 4.999804 14.000196 0.000000 4.999804 15.000196 0.000000 4.999804 16.000197 0.000000 4.999804 17.000197 0.000000 4.999804 18.000197 0.000000 4.999804 19.000296 0.000000 5.999805 -0.000482 0.000000 5.999805 0.999646 0.000000 5.999805 1.999796 0.000000 5.999805 2.999803 0.000000 5.999805 3.999803 0.000000 5.999620 4.999803 0.000000 5.999654 5.999804 0.000000 5.999802 6.999961 0.000000 5.999804 7.999999 0.000000 5.999802 9.000000 0.000000 5.999804 10.000001 0.000000 5.999803 11.000195 0.000000 5.999804 12.000196 0.000000 5.999804 13.000196 0.000000 5.999804 14.000196 0.000000 5.999804 15.000196 0.000000 5.999804 16.000197 0.000000 5.999804 17.000197 0.000000 5.999804 18.000197 0.000000 5.999804 19.000296 0.000000 6.999805 -0.000296 0.000000 6.999805 0.999803 0.000000 6.999805 1.999803 0.000000 6.999805 2.999803 0.000000 6.999805 3.999804 0.000000 6.999795 4.999804 0.000000 6.999795 5.999804 0.000000 6.999803 6.999805 0.000000 6.999804 7.999805 0.000000 6.999803 8.999999 0.000000 6.999804 10.000001 0.000000 6.999804 11.000195 0.000000 6.999804 12.000196 0.000000 6.999804 13.000196 0.000000 6.999804 14.000196 0.000000 6.999804 15.000196 0.000000 6.999804 16.000197 0.000000 6.999804 17.000197 0.000000 6.999804 18.000197 0.000000 6.999804 19.000296 0.000000 7.999805 -0.000296 0.000000 7.999805 0.999803 0.000000 7.999805 1.999803 0.000000 7.999805 2.999803 0.000000 7.999806 3.999804 0.000000 7.999801 4.999804 0.000000 7.999801 5.999804 0.000000 7.999804 6.999804 0.000000 7.999805 7.999805 0.000000 7.999804 8.999999 0.000000 7.999804 10.000001 0.000000 7.999804 11.000195 0.000000 7.999804 12.000196 0.000000 7.999804 13.000196 0.000000 7.999804 14.000196 0.000000 7.999804 15.000196 0.000000 7.999804 16.000197 0.000000 7.999804 17.000197 0.000000 7.999804 18.000197 0.000000 7.999804 19.000296 0.000000 8.999805 -0.000296 0.000000 8.999805 0.999803 0.000000 8.999805 1.999803 0.000000 8.999805 2.999803 0.000000 8.999806 3.999804 0.000000 8.999802 4.999804 0.000000 8.999803 5.999804 0.000000 8.999805 6.999804 0.000000 8.999805 7.999805 0.000000 8.999805 9.000000 0.000000 8.999805 10.000001 0.000000 8.999805 11.000195 0.000000 8.999805 12.000196 0.000000 8.999805 13.000196 0.000000 8.999805 14.000196 0.000000 8.999805 15.000196 0.000000 8.999805 16.000197 0.000000 8.999805 17.000197 0.000000 8.999805 18.000197 0.000000 8.999805 19.000296 0.000000 9.999806 -0.000296 0.000000 9.999806 0.999803 0.000000 9.999806 1.999803 0.000000 9.999806 2.999803 0.000000 9.999806 3.999804 0.000000 9.999804 4.999804 0.000000 9.999804 5.999804 0.000000 9.999806 6.999804 0.000000 9.999805 7.999805 0.000000 9.999805 9.000000 0.000000 9.999805 10.000001 0.000000 9.999805 11.000195 0.000000 9.999805 12.000196 0.000000 9.999805 13.000196 0.000000 9.999805 14.000196 0.000000 9.999805 15.000196 0.000000 9.999805 16.000197 0.000000 9.999805 17.000197 0.000000 9.999805 18.000197 0.000000 9.999805 19.000296 0.000000 10.999806 -0.000296 0.000000 10.999806 0.999803 0.000000 10.999806 1.999803 0.000000 10.999806 2.999803 0.000000 10.999807 3.999804 0.000000 10.999809 4.999804 0.000000 10.999809 5.999804 0.000000 10.999807 6.999804 0.000000 10.999806 7.999805 0.000000 10.999807 9.000000 0.000000 10.999805 10.000001 0.000000 10.999805 11.000195 0.000000 10.999805 12.000196 0.000000 10.999805 13.000196 0.000000 10.999805 14.000196 0.000000 10.999805 15.000196 0.000000 10.999805 16.000197 0.000000 10.999805 17.000197 0.000000 10.999805 18.000197 0.000000 10.999805 19.000296 0.000000 11.999806 -0.000296 0.000000 11.999806 0.999803 0.000000 11.999806 1.999803 0.000000 11.999806 2.999803 0.000000 11.999807 3.999804 0.000000 11.999809 4.999804 0.000000 11.999809 5.999804 0.000000 11.999807 6.999804 0.000000 11.999806 7.999805 0.000000 11.999807 9.000000 0.000000 11.999806 10.000001 0.000000 11.999806 11.000195 0.000000 11.999806 12.000196 0.000000 11.999806 13.000196 0.000000 11.999806 14.000196 0.000000 11.999806 15.000196 0.000000 11.999806 16.000197 0.000000 11.999806 17.000197 0.000000 11.999806 18.000197 0.000000 11.999806 19.000296 0.000000 12.999807 -0.000296 0.000000 12.999807 0.999803 0.000000 12.999807 1.999803 0.000000 12.999807 2.999803 0.000000 12.999807 3.999804 0.000000 12.999809 4.999804 0.000000 12.999809 5.999804 0.000000 12.999808 6.999804 0.000000 12.999807 7.999805 0.000000 12.999808 9.000000 0.000000 12.999806 10.000001 0.000000 12.999806 11.000195 0.000000 12.999806 12.000196 0.000000 12.999806 13.000196 0.000000 12.999806 14.000196 0.000000 12.999806 15.000196 0.000000 12.999806 16.000197 0.000000 12.999806 17.000197 0.000000 12.999806 18.000197 0.000000 12.999806 19.000296 0.000000 13.999807 -0.000296 0.000000 13.999807 0.999803 0.000000 13.999807 1.999803 0.000000 13.999807 2.999803 0.000000 13.999807 3.999804 0.000000 13.999809 4.999804 0.000000 13.999809 5.999804 0.000000 13.999808 6.999804 0.000000 13.999807 7.999805 0.000000 13.999808 9.000000 0.000000 13.999806 10.000001 0.000000 13.999806 11.000195 0.000000 13.999806 12.000196 0.000000 13.999806 13.000196 0.000000 13.999806 14.000196 0.000000 13.999806 15.000196 0.000000 13.999806 16.000197 0.000000 13.999806 17.000197 0.000000 13.999806 18.000197 0.000000 13.999806 19.000296 0.000000 14.999807 -0.000296 0.000000 14.999807 0.999803 0.000000 14.999807 1.999803 0.000000 14.999807 2.999803 0.000000 14.999808 3.999804 0.000000 14.999810 4.999804 0.000000 14.999810 5.999804 0.000000 14.999808 6.999804 0.000000 14.999807 7.999805 0.000000 14.999808 9.000000 0.000000 14.999807 10.000001 0.000000 14.999807 11.000195 0.000000 14.999807 12.000196 0.000000 14.999807 13.000196 0.000000 14.999807 14.000196 0.000000 14.999807 15.000196 0.000000 14.999807 16.000197 0.000000 14.999807 17.000197 0.000000 14.999807 18.000197 0.000000 14.999807 19.000296 0.000000 15.999807 -0.000296 0.000000 15.999807 0.999803 0.000000 15.999807 1.999803 0.000000 15.999807 2.999803 0.000000 15.999808 3.999804 0.000000 15.999810 4.999804 0.000000 15.999810 5.999804 0.000000 15.999809 6.999804 0.000000 15.999807 7.999805 0.000000 15.999809 9.000000 0.000000 15.999808 10.000001 0.000000 15.999808 11.000195 0.000000 15.999808 12.000196 0.000000 15.999808 13.000196 0.000000 15.999808 14.000196 0.000000 15.999807 15.000196 0.000000 15.999807 16.000197 0.000000 15.999807 17.000197 0.000000 15.999807 18.000197 0.000000 15.999807 19.000296 0.000000 16.999808 -0.000296 0.000000 16.999808 0.999803 0.000000 16.999808 1.999803 0.000000 16.999808 2.999803 0.000000 16.999808 3.999804 0.000000 16.999810 4.999804 0.000000 16.999810 5.999804 0.000000 16.999809 6.999804 0.000000 16.999808 7.999805
[...]
      <PointData Vectors="vector">
        <DataArray type="Float32" Name="Velocity" NumberOfComponents="3" format="ascii">
-0.015000 -0.009000 0.000000 -0.015000 -0.006000 0.000000 -0.015000 -0.006000 0.000000 -0.015000 -0.006000 0.000000 -0.021000 -0.006000 0.000000 -0.021000 -0.006000 0.000000 -0.021000 -0.006000 0.000000 -0.021000 -0.006000 0.000000 -0.015000 -0.006000 0.000000 -0.021000 0.000000 0.000000 -0.015000 0.000000 0.000000 -0.015000 0.006000 0.000000 -0.015000 0.006000 0.000000 -0.015000 0.006000 0.000000 -0.015000 0.006000 0.000000 -0.015000 0.006000 0.000000 -0.015000 0.006000 0.000000 -0.015000 0.006000 0.000000 -0.015000 0.006000 0.000000 -0.015000 0.009000 0.000000 -0.006000 -0.009000 0.000000 -0.006000 -0.006000 0.000000 -0.006000 -0.006000 0.000000 -0.006000 -0.006000 0.000000 -0.012000 -0.006000 0.000000 -0.018000 -0.006000 0.000000 -0.018000 -0.006000 0.000000 -0.012000 -0.006000 0.000000 -0.006000 -0.006000 0.000000 -0.012000 0.000000 0.000000 -0.006000 0.000000 0.000000 -0.006000 0.006000 0.000000 -0.006000 0.006000 0.000000 -0.006000 0.006000 0.000000 -0.006000 0.006000 0.000000 -0.006000 0.006000 0.000000 -0.006000 0.006000 0.000000 -0.006000 0.006000 0.000000 -0.006000 0.006000 0.000000 -0.006000 0.009000 0.000000 -0.006000 -0.009000 0.000000 -0.006000 -0.006000 0.000000 -0.006000 -0.006000 0.000000 -0.006000 -0.006000 0.000000 -0.006000 -0.006000 0.000000 -0.012000 -0.006000 0.000000 -0.012000 -0.006000 0.000000 -0.012000 -0.006000 0.000000 -0.006000 -0.006000 0.000000 -0.012000 0.000000 0.000000 -0.006000 0.000000 0.000000 -0.006000 0.006000 0.000000 -0.006000 0.006000 0.000000 -0.006000 0.006000 0.000000 -0.006000 0.006000 0.000000 -0.006000 0.006000 0.000000 -0.006000 0.006000 0.000000 -0.006000 0.006000 0.000000 -0.006000 0.006000 0.000000 -0.006000 0.009000 0.000000 -0.006000 -0.009000 0.000000 -0.006000 -0.006000 0.000000 -0.006000 -0.006000 0.000000 -0.006000 -0.006000 0.000000 -0.006000 -0.006000 0.000000 -0.012000 -0.006000 0.000000 -0.012000 -0.006000 0.000000 -0.012000 -0.006000 0.000000 -0.006000 -0.006000 0.000000 -0.012000 -0.000000 0.000000 -0.006000 -0.000000 0.000000 -0.006000 0.006000 0.000000 -0.006000 0.006000 0.000000 -0.006000 0.006000 0.000000 -0.006000 0.006000 0.000000 -0.006000 0.006000 0.000000 -0.006000 0.006000 0.000000 -0.006000 0.006000 0.000000 -0.006000 0.006000 0.000000 -0.006000 0.009000 0.000000 -0.006000 -0.009000 0.000000 -0.006000 -0.006000 0.000000 -0.006000 -0.006000 0.000000 -0.006000 -0.006000 0.000000 -0.006000 -0.005999 0.000000 -0.012000 -0.006000 0.000000 -0.012000 -0.005999 0.000000 -0.006000 -0.006000 0.000000 -0.006000 -0.006000 0.000000 -0.006000 0.000000 0.000000 -0.006000 0.000000 0.000000 -0.006000 0.006000 0.000000 -0.006000 0.006000 0.000000 -0.006000 0.006000 0.000000 -0.006000 0.006000 0.000000 -0.006000 0.006000 0.000000 -0.006000 0.006000 0.000000 -0.006000 0.006000 0.000000 -0.006000 0.006000 0.000000 -0.006000 0.009000 0.000000 -0.006000 -0.033000 0.000000 -0.006000 -0.018000 0.000000 -0.006000 -0.018000 0.000000 -0.006000 -0.018000 0.000000 -0.006000 -0.012001 0.000000 -0.012001 -0.012001 0.000000 -0.012000 -0.012001 0.000000 -0.006000 -0.012000 0.000000 -0.006000 -0.006000 0.000000 -0.006000 -0.006000 0.000000 -0.006000 -0.006000 0.000000 -0.006000 -0.000000 0.000000 -0.006000 0.006000 0.000000 -0.006000 0.006000 0.000000 -0.006000 0.006000 0.000000 -0.006000 0.006000 0.000000 -0.006000 0.006000 0.000000 -0.006000 0.006000 0.000000 -0.006000 0.006000 0.000000 -0.006000 0.009000 0.000000 -0.006000 -0.015000 0.000000 -0.006000 -0.012000 0.000000 -0.006000 -0.006000 0.000000 -0.006000 -0.006000 0.000000 -0.006000 -0.005999 0.000000 -0.012000 -0.006000 0.000000 -0.012000 -0.005999 0.000000 -0.006000 -0.000000 0.000000 -0.006000 0.000000 0.000000 -0.006000 0.000000 0.000000 -0.006000 0.000000 0.000000 -0.006000 0.006000 0.000000 -0.006000 0.006000 0.000000 -0.006000 0.006000 0.000000 -0.006000 0.006000 0.000000 -0.006000 0.006000 0.000000 -0.006000 0.006000 0.000000 -0.006000 0.006000 0.000000 -0.006000 0.006000 0.000000 -0.006000 0.009000 0.000000 -0.006000 -0.009000 0.000000 -0.006000 -0.006000 0.000000 -0.006000 -0.006000 0.000000 -0.006000 -0.006000 0.000000 -0.006000 -0.006000 0.000000 -0.006000 -0.006000 0.000000 -0.006000 -0.006000 0.000000 -0.006000 -0.006000 0.000000 -0.006000 -0.006000 0.000000 -0.006000 -0.000000 0.000000 -0.006000 0.000000 0.000000 -0.006000 0.006000 0.000000 -0.006000 0.006000 0.000000 -0.006000 0.006000 0.000000 -0.006000 0.006000 0.000000 -0.006000 0.006000 0.000000 -0.006000 0.006000 0.000000 -0.006000 0.006000 0.000000 -0.006000 0.006000 0.000000 -0.006000 0.009000 0.000000 -0.006000 -0.009000 0.000000 -0.006000 -0.006000 0.000000 -0.006000 -0.006000 0.000000 -0.006000 -0.006000 0.000000 -0.006000 -0.006000 0.000000 -0.006000 -0.006000 0.000000 -0.006000 -0.006000 0.000000 -0.006000 -0.006000 0.000000 -0.006000 -0.006000 0.000000 -0.006000 0.000000 0.000000 -0.006000 0.000000 0.000000 -0.006000 0.006000 0.000000 -0.006000 0.006000 0.000000 -0.006000 0.006000 0.000000 -0.006000 0.006000 0.000000 -0.006000 0.006000 0.000000 -0.006000 0.006000 0.000000 -0.006000 0.006000 0.000000 -0.006000 0.006000 0.000000 -0.006000 0.009000 0.000000 -0.006000 -0.009000 0.000000 -0.006000 -0.006000 0.000000 -0.006000 -0.006000 0.000000 -0.006000 -0.006000 0.000000 -0.006000 -0.006000 0.000000 -0.006000 -0.006000 0.000000 -0.006000 -0.006000 0.000000 -0.006000 -0.006000 0.000000 -0.006000 -0.006000 0.000000 -0.006000 0.000000 0.000000 -0.006000 0.000000 0.000000 -0.006000 0.006000 0.000000 -0.006000 0.006000 0.000000 -0.006000 0.006000 0.000000 -0.006000 0.006000 0.000000 -0.006000 0.006000 0.000000 -0.006000 0.006000 0.000000 -0.006000 0.006000 0.000000 -0.006000 0.006000 0.000000 -0.006000 0.009000 0.000000 -0.006000 -0.009000 0.000000 -0.006000 -0.006000 0.000000 -0.006000 -0.006000 0.000000 -0.006000 -0.006000 0.000000 -0.006000 -0.006000 0.000000 -0.006000 -0.006000 0.000000 -0.006000 -0.006000 0.000000 -0.006000 -0.006000 0.000000 -0.006000 -0.006000 0.000000 -0.006000 -0.000000 0.000000 -0.006000 0.000000 0.000000 -0.006000 0.006000 0.000000 -0.006000 0.006000 0.000000 -0.006000 0.006000 0.000000 -0.006000 0.006000 0.000000 -0.006000 0.006000 0.000000 -0.006000 0.006000 0.000000 -0.006000 0.006000 0.000000 -0.006000 0.006000 0.000000 -0.006000 0.009000 0.000000 -0.006000 -0.009000 0.000000 -0.006000 -0.006000 0.000000 -0.006000 -0.006000 0.000000 -0.006000 -0.006000 0.000000 -0.006000 -0.006000 0.000000 -0.006000 -0.006000 0.000000 -0.006000 -0.006000 0.000000 -0.006000 -0.006000 0.000000 -0.006000 -0.006000 0.000000 -0.006000 0.000000 0.000000 -0.006000 0.000000 0.000000 -0.006000 0.006000 0.000000 -0.006000 0.006000 0.000000 -0.006000 0.006000 0.000000 -0.006000 0.006000 0.000000 -0.006000 0.006000 0.000000 -0.006000 0.006000 0.000000 -0.006000 0.006000 0.000000 -0.006000 0.006000 0.000000 -0.006000 0.009000 0.000000 -0.006000 -0.009000 0.000000 -0.006000 -0.006000 0.000000 -0.006000 -0.006000 0.000000 -0.006000 -0.006000 0.000000 -0.006000 -0.006000 0.000000 -0.006000 -0.006000 0.000000 -0.006000 -0.006000 0.000000 -0.006000 -0.006000 0.000000 -0.006000 -0.006000 0.000000 -0.006000 0.000000 0.000000 -0.006000 0.000000 0.000000 -0.006000 0.006000 0.000000 -0.006000 0.006000 0.000000 -0.006000 0.006000 0.000000 -0.006000 0.006000 0.000000 -0.006000 0.006000 0.000000 -0.006000 0.006000 0.000000 -0.006000 0.006000 0.000000 -0.006000 0.006000 0.000000 -0.006000 0.009000 0.000000 -0.006000 -0.009000 0.000000 -0.006000 -0.006000 0.000000 -0.006000 -0.006000 0.000000 -0.006000 -0.006000 0.000000 -0.006000 -0.006000 0.000000 -0.006000 -0.006000 0.000000 -0.006000 -0.006000 0.000000 -0.006000 -0.006000 0.000000 -0.006000 -0.006000 0.000000 -0.006000 0.000000 0.000000 -0.006000 0.000000 0.000000 -0.006000 0.006000 0.000000 -0.006000 0.006000 0.000000 -0.006000 0.006000 0.000000 -0.006000 0.006000 0.000000 -0.006000 0.006000 0.000000 -0.006000 0.006000 0.000000 -0.006000 0.006000 0.000000 -0.006000 0.006000 0.000000 -0.006000 0.009000 0.000000 -0.006000 -0.009000 0.000000 -0.006000 -0.006000 0.000000 -0.006000 -0.006000 0.000000 -0.006000 -0.006000 0.000000 -0.006000 -0.006000 0.000000 -0.006000 -0.006000 0.000000 -0.006000 -0.006000 0.000000 -0.006000 -0.006000 0.000000 -0.006000 -0.006000 0.000000 -0.006000 0.000000 0.000000 -0.006000 0.000000 0.000000 -0.006000 0.006000 0.000000 -0.006000 0.006000 0.000000 -0.006000 0.006000 0.000000 -0.006000 0.006000 0.000000 -0.006000 0.006000 0.000000 -0.006000 0.006000 0.000000 -0.006000 0.006000 0.000000 -0.006000 0.006000 0.000000 -0.006000 0.009000 0.000000 -0.006000 -0.009000 0.000000 -0.006000 -0.006000 0.000000 -0.006000 -0.006000 0.000000 -0.006000 -0.006000 0.000000 -0.006000 -0.006000 0.000000 -0.006000 -0.006000 0.000000 -0.006000 -0.006000 0.000000 -0.006000 -0.006000 0.000000 -0.006000 -0.006000 0.000000 -0.006000 0.000000 0.000000 -0.006000 0.000000 0.000000 -0.006000 0.006000 0.000000 -0.006000 0.006000 0.000000 -0.006000 0.006000 0.000000 -0.006000 0.006000 0.000000 -0.006000 0.006000 0.000000 -0.006000 0.006000 0.000000 -0.006000 0.006000 0.000000 -0.006000 0.006000 0.000000 -0.006000 0.009000 0.000000 -0.006000 -0.009000 0.000000 -0.006000 -0.006000 0.000000 -0.006000 -0.006000 0.000000 -0.006000 -0.006000 0.000000 -0.006000 -0.006000 0.000000 -0.006000 -0.006000 0.000000 -0.006000 -0.006000 0.000000 -0.006000 -0.006000 0.000000 -0.006000 -0.006000 0.000000 -0.006000 0.000000 0.000000 -0.006000 0.000000 0.000000 -0.006000 0.006000 0.000000 -0.006000 0.006000 0.000000 -0.006000 0.006000 0.000000 -0.006000 0.006000 0.000000 -0.006000 0.006000 0.000000 -0.006000 0.006000 0.000000 -0.006000 0.006000 0.000000 -0.006000 0.006000 0.000000 -0.006000 0.009000 0.000000 -0.006000 -0.009000 0.000000 -0.006000 -0.006000 0.000000 -0.006000 -0.006000 0.000000 -0.006000 -0.006000 0.000000 -0.006000 -0.006000 0.000000 -0.006000 -0.006000 0.000000 -0.006000 -0.006000 0.000000 -0.006000 -0.006000 0.000000 -0.006000 -0.006000 0.000000 -0.006000 0.000000 0.000000 -0.006000 0.000000 0.000000 -0.006000 0.006000 0.000000 -0.006000 0.006000 0.000000 -0.006000 0.006000 0.000000 -0.006000 0.006000 0.000000 -0.006000 0.006000 0.000000 -0.006000 0.006000 0.000000 -0.006000 0.006000 0.000000 -0.006000 0.006000 0.000000 -0.006000 0.009000 0.000000 -0.006000 -0.009000 0.000000 -0.006000 -0.006000 0.000000 -0.006000 -0.006000 0.000000 -0.006000 -0.006000 0.000000 -0.006000 -0.006000 0.000000 -0.006000 -0.006000 0.000000 -0.006000 -0.006000 0.000000 -0.006000 -0.006000 0.000000 -0.006000 -0.006000 0.000000 -0.006000 0.000000 0.000000 -0.006000 0.000000 0.000000 -0.006000 0.006000 0.000000 -0.006000 0.006000 0.000000 -0.006000 0.006000 0.000000 -0.006000 0.006000 0.000000 -0.006000 0.006000 0.000000 -0.006000 0.006000 0.000000 -0.006000 0.006000 0.000000 -0.006000 0.006000 0.000000 -0.006000 0.009000 0.000000 -0.006000 -0.009000 0.000000 -0.006000 -0.006000 0.000000 -0.006000 -0.006000 0.000000 -0.006000 -0.006000 0.000000 -0.006000 -0.006000 0.000000 -0.006000 -0.006000 0.000000 -0.006000 -0.006000 0.000000 -0.006000 -0.006000 0.000000 -0.006000 -0.006000 0.000000 -0.006000 0.000000 0.000000 -0.006000 0.000000 0.000000 -0.006000 0.006000 0.000000 -0.006000 0.006000 0.000000 -0.006000 0.006000 0.000000 -0.006000 0.006000 0.000000 -0.006000 0.006000 0.000000 -0.006000 0.006000 0.000000 -0.006000 0.006000 0.000000 -0.006000 0.006000 0.000000 -0.006000 0.009000 0.000000 -0.006000 -0.009000 0.000000 -0.006000 -0.006000 0.000000 -0.006000 -0.006000 0.000000 -0.006000 -0.006000 0.000000 -0.006000 -0.006000 0.000000 -0.006000 -0.006000 0.000000 -0.006000 -0.006000 0.000000 -0.006000 -0.006000 0.000000 -0.006000 -0.006000 0.000000 -0.006000 0.000000 0.000000 -0.006000 0.000000 0.000000 -0.006000 0.006000 0.000000 -0.006000 0.006000 0.000000 -0.006000 0.006000 0.000000 -0.006000 0.006000 0.000000 -0.006000 0.006000 0.000000 -0.006000 0.006000 0.000000 -0.006000 0.006000 0.000000 -0.006000 0.006000 0.000000 -0.006000 0.009000 0.000000 -0.006000 -0.009000 0.000000 -0.006000 -0.006000 0.000000 -0.006000 -0.006000 0.000000 -0.006000 -0.006000 0.000000 -0.006000 -0.006000 0.000000 -0.006000 -0.006000 0.000000 -0.006000 -0.006000 0.000000 -0.006000 -0.006000 0.000000 -0.006000 -0.006000 0.000000 -0.006000 0.000000 0.000000 -0.006000 0.000000 0.000000 -0.006000 0.006000 0.000000 -0.006000 0.006000 0.000000 -0.006000 0.006000 0.000000 -0.006000 0.006000 0.000000 -0.006000 0.006000 0.000000 -0.006000 0.006000 0.000000 -0.006000 0.006000 0.000000 -0.006000 0.006000 0.000000 -0.006000 0.009000 0.000000 -0.006000 -0.009000 0.000000 -0.006000 -0.006000 0.000000 -0.006000 -0.006000 0.000000 -0.006000 -0.006000 0.000000 -0.006000 -0.006000 0.000000 -0.006000 -0.006000 0.000000 -0.006000 -0.006000 0.000000 -0.006000 -0.006000 0.000000 -0.006000 -0.006000 0.000000 -0.006000 0.000000 0.000000 -0.006000 0.000000 0.000000 -0.006000 0.006000 0.000000 -0.006000 0.006000 0.000000 -0.006000 0.006000 0.000000 -0.006000 0.006000 0.000000 -0.006000 0.006000 0.000000 -0.006000 0.006000 0.000000 -0.006000 0.006000 0.000000 -0.006000 0.006000 0.000000 -0.006000 0.009000 0.000000 -0.006000 -0.009000 0.000000 -0.006000 -0.006000 0.000000 -0.006000 -0.006000 0.000000 -0.006000 -0.006000 0.000000 -0.006000 -0.006000 0.000000 -0.006000 -0.006000 0.000000 -0.006000 -0.006000 0.000000 -0.006000 -0.006000 0.000000 -0.006000 -0.006000 0.000000 -0.006000 0.000000 0.000000 -0.006000 0.000000 0.000000 -0.006000 0.006000 0.000000 -0.006000 0.006000 0.000000 -0.006000 0.006000 0.000000 -0.006000 0.006000 0.000000 -0.006000 0.006000 0.000000 -0.006000 0.006000 0.000000 -0.006000 0.006000 0.000000 -0.006000 0.006000 0.000000 -0.006000 0.009000 0.000000 -0.006000 -0.009000 0.000000 -0.006000 -0.006000 0.000000 -0.006000 -0.006000 0.000000 -0.006000 -0.006000 0.000000 -0.006000 -0.006000 0.000000 -0.006000 -0.006000 0.000000 -0.006000 -0.006000 0.000000 -0.006000 -0.006000 0.000000 -0.006000 -0.006000 0.000000 -0.006000 0.000000 0.000000 -0.006000 0.000000 0.000000 -0.006000 0.006000 0.000000 -0.006000 0.006000 0.000000 -0.006000 0.006000 0.000000 -0.006000 0.006000 0.000000 -0.006000 0.006000 0.000000 -0.006000 0.006000 0.000000 -0.006000 0.006000 0.000000 -0.006000 0.006000 0.000000 -0.006000 0.009000 0.000000 -0.006000 -0.009000 0.000000 -0.006000 -0.006000 0.000000 -0.006000 -0.006000 0.000000 -0.006000 -0.006000 0.000000 -0.006000 -0.006000 0.000000 -0.006000 -0.006000 0.000000 -0.006000 -0.006000 0.000000 -0.006000 -0.006000 0.000000 -0.006000 -0.006000 0.000000 -0.006000 0.000000 0.000000 -0.006000 0.000000 0.000000 -0.006000 0.006000 0.000000 -0.006000 0.006000 0.000000 -0.006000 0.006000 0.000000 -0.006000 0.006000 0.000000 -0.006000 0.006000 0.000000 -0.006000 0.006000 0.000000 -0.006000 0.006000 0.000000 -0.006000 0.006000 0.000000 -0.006000 0.009000 0.000000 -0.006000 -0.009000 0.000000 -0.006000 -0.006000 0.000000 -0.006000 -0.006000 0.000000 -0.006000 -0.006000 0.000000 -0.006000 -0.006000 0.000000 -0.006000 -0.006000 0.000000 -0.006000 -0.006000 0.000000 -0.006000 -0.006000 0.000000 -0.006000 -0.006000 0.000000 -0.006000 0.000000 0.000000 -0.006000 0.000000 0.000000 -0.006000 0.006000 0.000000 -0.006000 0.006000 0.000000 -0.006000 0.006000 0.000000 -0.006000 0.006000 0.000000 -0.006000 0.006000 0.000000 -0.006000 0.006000 0.000000 -0.006000 0.006000 0.000000 -0.006000 0.006000 0.000000 -0.006000 0.009000 0.000000 -0.006000 -0.009000 0.000000 -0.006000 -0.006000 0.000000 -0.006000 -0.006000 0.000000 -0.006000 -0.006000 0.000000 -0.006000 -0.006000 0.000000 -0.006000 -0.006000 0.000000 -0.006000 -0.006000 0.000000 -0.006000 -0.006000 0.000000 -0.006000 -0.006000 0.000000 -0.006000 0.000000 0.000000 -0.006000 0.000000 0.000000 -0.006000 0.006000 0.000000 -0.006000 0.006000 0.000000 -0.006000 0.006000 0.000000 -0.006000 0.006000 0.000000 -0.006000 0.006000 0.000000 -0.006000 0.006000 0.000000 -0.006000 0.006000 0.000000 -0.006000 0.006000 0.000000 -0.006000 0.009000 0.000000 -0.006000 -0.009000 0.000000 -0.006000 -0.006000 0.000000 -0.006000 -0.006000 0.000000 -0.006000 -0.006000 0.000000 -0.006000 -0.006000 0.000000 -0.006000 -0.006000 0.000000 -0.006000 -0.006000 0.000000 -0.006000 -0.006000 0.000000 -0.006000 -0.006000 0.000000 -0.006000 0.000000 0.000000 -0.006000 0.000000 0.000000 -0.006000 0.006000 0.000000 -0.006000 0.006000 0.000000 -0.006000 0.006000 0.000000 -0.006000 0.006000 0.000000 -0.006000 0.006000 0.000000 -0.006000 0.006000 0.000000 -0.006000 0.006000 0.000000 -0.006000 0.006000 0.000000 -0.006000 0.009000 0.000000 -0.006000 -0.009000 0.000000 -0.006000 -0.006000 0.000000 -0.006000 -0.006000 0.000000 -0.006000 -0.006000 0.000000 -0.006000 -0.006000 0.000000 -0.006000 -0.006000 0.000000 -0.006000 -0.006000 0.000000 -0.006000 -0.006000 0.000000 -0.006000 -0.006000 0.000000 -0.006000 0.000000 0.000000 -0.006000 0.000000 0.000000 -0.006000 0.006000 0.000000 -0.006000 0.006000 0.000000 -0.006000 0.006000 0.000000 -0.006000 0.006000 0.000000 -0.006000 0.006000 0.000000 -0.006000 0.006000 0.000000 -0.006000 0.006000 0.000000 -0.006000 0.006000 0.000000 -0.006000 0.009000 0.000000 -0.006000 -0.009000 0.000000 -0.006000 -0.006000 0.000000 -0.006000 -0.006000 0.000000 -0.006000 -0.006000 0.000000 -0.006000 -0.006000 0.000000 -0.006000 -0.006000 0.000000 -0.006000 -0.006000 0.000000 -0.006000 -0.006000 0.000000 -0.006000 -0.006000 0.000000 -0.006000 0.000000 0.000000 -0.006000 0.000000 0.000000 -0.006000 0.006000 0.000000 -0.006000 0.006000 0.000000 -0.006000 0.006000 0.000000 -0.006000 0.006000 0.000000 -0.006000 0.006000 0.000000 -0.006000 0.006000 0.000000 -0.006000 0.006000 0.000000 -0.006000 0.006000 0.000000 -0.006000 0.009000 0.000000 -0.006000 -0.009000 0.000000 -0.006000 -0.006000 0.000000 -0.006000 -0.006000 0.000000 -0.006000 -0.006000 0.000000 -0.006000 -0.006000 0.000000 -0.006000 -0.006000 0.000000 -0.006000 -0.006000 0.000000 -0.006000 -0.006000 0.000000 -0.006000 -0.006000 0.000000 -0.006000 0.000000 0.000000 -0.006000 0.000000 0.000000 -0.006000 0.006000 0.000000 -0.006000 0.006000 0.000000 -0.006000 0.006000 0.000000 -0.006000 0.006000 0.000000 -0.006000 0.006000 0.000000 -0.006000 0.006000 0.000000 -0.006000 0.006000 0.000000 -0.006000 0.006000 0.000000 -0.006000 0.009000 0.000000 -0.006000 -0.009000 0.000000 -0.006000 -0.006000 0.000000 -0.006000 -0.006000 0.000000 -0.006000 -0.006000 0.000000 -0.006000 -0.006000 0.000000 -0.006000 -0.006000 0.000000 -0.006000 -0.006000 0.000000 -0.006000 -0.006000 0.000000 -0.006000 -0.006000 0.000000 -0.006000 0.000000 0.000000 -0.006000 0.000000 0.000000 -0.006000 0.006000 0.000000 -0.006000 0.006000 0.000000 -0.006000 0.006000 0.000000 -0.006000 0.006000 0.000000 -0.006000 0.006000 0.000000 -0.006000 0.006000 0.000000 -0.006000 0.006000 0.000000 -0.006000 0.006000 0.000000 -0.006000 0.009000 0.000000 -0.006000 -0.009000 0.000000 -0.006000 -0.006000 0.000000 -0.006000 -0.006000 0.000000 -0.006000 -0.006000 0.000000 -0.006000 -0.006000 0.000000 0.000000 -0.006000 0.000000 0.000000 -0.006000 0.000000 -0.006000 -0.006000 0.000000 -0.006000 -0.006000 0.000000 -0.006000 0.000000 0.000000 -0.006000 0.000000 0.000000 -0.006000 0.006000 0.000000 -0.006000 0.006000 0.000000 -0.006000 0.006000 0.000000 -0.006000 0.006000 0.000000 -0.006000 0.006000 0.000000 -0.006000 0.006000 0.000000 -0.006000 0.006000 0.000000 -0.006000 0.006000 0.000000 -0.006000 0.009000 0.000000 -0.006000 -0.009000 0.000000 -0.006000 -0.006000 0.000000 -0.006000 -0.006000 0.000000 -0.006000 -0.006000 0.000000 -0.006000 -0.006000 0.000000 0.000000 -0.006000 0.000000 0.000000 -0.006000 0.000000 -0.006000 -0.006000 0.000000 -0.006000 -0.006000 0.000000 -0.006000 0.000000 0.000000 -0.006000 0.000000 0.000000 -0.006000 0.006000 0.000000 -0.006000 0.006000 0.000000 -0.006000 0.006000 0.000000 -0.006000 0.006000 0.000000 -0.006000 0.006000 0.000000 -0.006000 0.006000 0.000000 -0.006000 0.006000 0.000000 -0.006000 0.006