<VTKFile type="UnstructuredGrid" version="0.1" byte_order="LittleEndian">
  <UnstructuredGrid>
    <Piece NumberOfPoints="2000" NumberOfCells="0">
      <Points>
        <DataArray name="Position" type="Float32" NumberOfComponents="3" format="ascii">
-0.002176 -0.001309 0.000000 -0.002176 0.999128 0.000000 -0.002176 1.999128 0.000000 -0.002176 2.999128 0.000000 -0.002881 3.999129 0.000000 -0.003015 4.999129 0.000000 -0.003001 5.999129 0.000000 -0.003036 6.999129 0.000000 -0.002167 7.999130 0.000000 -0.003035 9.000000 0.000000 -0.002163 10.000001 0.000000 -0.002162 11.000870 0.000000 -0.002164 12.000871 0.000000 -0.002164 13.000871 0.000000 -0.002164 14.000871 0.000000 -0.002158 15.000871 0.000000 -0.002158 16.000872 0.000000 -0.002158 17.000872 0.000000 -0.002158 18.000872 0.000000 -0.002158 19.001309 0.000000 0.999125 -0.001309 0.000000 0.999125 0.999128 0.000000 0.999125 1.999128 0.000000 0.998863 2.999128 0.000000 0.998176 3.999129 0.000000 0.997427 4.999129 0.000000 0.997497 5.999129 0.000000 0.998261 6.999129 0.000000 0.998828 7.999130 0.000000 0.998262 9.000000 0.000000 0.998794 10.000001 0.000000 0.999050 11.000870 0.000000 0.999119 12.000871 0.000000 0.999119 13.000871 0.000000 0.999119 14.000871 0.000000 0.999116 15.000871 0.000000 0.999116 16.000872 0.000000 0.999116 17.000872 0.000000 0.998855 18.000872 0.000000 0.998647 19.001309 0.000000 1.999128 -0.001309 0.000000 1.999128 0.999128 0.000000 1.999127 1.999128 0.000000 1.998867 2.999128 0.000000 1.998849 3.999129 0.000000 1.998253 4.999129 0.000000 1.998246 5.999129 0.000000 1.998265 6.999129 0.000000 1.998829 7.999130 0.000000 1.998265 9.000000 0.000000 1.998819 10.000001 0.000000 1.999080 11.000870 0.000000 1.999128 12.000871 0.000000 1.999128 13.000871 0.000000 1.999128 14.000871 0.000000 1.999128 15.000871 0.000000 1.999128 16.000872 0.000000 1.999128 17.000872 0.000000 1.998865 18.000872 0.000000 1.998661 19.001309 0.000000 2.999128 -0.001309 0.000000 2.999128 0.999128 0.000000 2.999127 1.999128 0.000000 2.998873 2.999128 0.000000 2.998884 3.999128 0.000000 2.998261 4.999129 0.000000 2.998263 5.999129 0.000000 2.998269 6.999129 0.000000 2.998831 7.999130 0.000000 2.998269 9.000000 0.000000 2.998823 10.000001 0.000000 2.999088 11.000870 0.000000 2.999128 12.000871 0.000000 2.999128 13.000871 0.000000 2.999128 14.000871 0.000000 2.999128 15.000871 0.000000 2.999128 16.000872 0.000000 2.999128 17.000872 0.000000 2.998882 18.000872 0.000000 2.998672 19.001309 0.000000 3.999128 -0.001309 0.000000 3.999128 0.999063 0.000000 3.999127 1.999128 0.000000 3.998941 2.999128 0.000000 3.998901 3.999129 0.000000 3.998263 4.999129 0.000000 3.998268 5.999130 0.000000 3.998844 6.999130 0.000000 3.998831 7.999194 0.000000 3.999095 9.000000 0.000000 3.998842 10.000001 0.000000 3.999099 11.000870 0.000000 3.999128 12.000871 0.000000 3.999128 13.000871 0.000000 3.999128 14.000871 0.000000 3.999128 15.000871 0.000000 3.999128 16.000872 0.000000 3.999128 17.000872 0.000000 3.998890 18.000872 0.000000 3.998683 19.001309 0.000000 4.999129 -0.004702 0.000000 4.999129 0.997373 0.000000 4.999127 1.997394 0.000000 4.999122 2.997399 0.000000 4.999123 3.998246 0.000000 4.998264 4.998259 0.000000 4.998299 5.998268 0.000000 4.998872 6.998279 0.000000 4.998868 7.999002 0.000000 4.999115 8.999128 0.000000 4.998844 9.999253 0.000000 4.999101 11.000000 0.000000 4.999129 12.000871 0.000000 4.999129 13.000871 0.000000 4.999129 14.000871 0.000000 4.999129 15.000871 0.000000 4.999129 16.000872 0.000000 4.999129 17.000872 0.000000 4.998910 18.000872 0.000000 4.998708 19.001309 0.000000 5.999130 -0.002169 0.000000 5.999130 0.998296 0.000000 5.999130 1.999060 0.000000 5.999130 2.999122 0.000000 5.999130 3.999129 0.000000 5.998270 4.999129 0.000000 5.998304 5.999196 0.000000 5.999120 6.999937 0.000000 5.998977 7.999962 0.000000 5.999120 9.000002 0.000000 5.998860 10.000064 0.000000 5.999103 11.000870 0.000000 5.999129 12.000871 0.000000 5.999129 13.000871 0.000000 5.999129 14.000871 0.000000 5.999129 15.000871 0.000000 5.999129 16.000872 0.000000 5.999129 17.000872 0.000000 5.998911 18.000872 0.000000 5.998894 19.001309 0.000000 6.999130 -0.001309 0.000000 6.999130 0.999038 0.000000 6.999130 1.999128 0.000000 6.999130 2.999128 0.000000 6.999130 3.999128 0.000000 6.999120 4.999128 0.000000 6.999120 5.999129 0.000000 6.999125 6.999129 0.000000 6.998982 7.999222 0.000000 6.999125 8.999999 0.000000 6.998960 10.000001 0.000000 6.999104 11.000870 0.000000 6.999129 12.000871 0.000000 6.999129 13.000871 0.000000 6.999129 14.000871 0.000000 6.999129 15.000871 0.000000 6.999129 16.000872 0.000000 6.999129 17.000872 0.000000 6.998911 18.000872 0.000000 6.998896 19.001309 0.000000 7.999130 -0.001309 0.000000 7.999130 0.999128 0.000000 7.999130 1.999128 0.000000 7.999130 2.999128 0.000000 7.999131 3.999128 0.000000 7.999126 4.999129 0.000000 7.999126 5.999129 0.000000 7.999126 6.999129 0.000000 7.998985 7.999130 0.000000 7.999126 8.999999 0.000000 7.998968 10.000001 0.000000 7.999114 11.000870 0.000000 7.999129 12.000871 0.000000 7.999129 13.000871 0.000000 7.999129 14.000871 0.000000 7.999129 15.000871 0.000000 7.999129 16.000872 0.000000 7.999129 17.000872 0.000000 7.998915 18.000872 0.000000 7.998899 19.001309 0.000000 8.999130 -0.001309 0.000000 8.999130 0.999128 0.000000 8.999130 1.999128 0.000000 8.999130 2.999128 0.000000 8.999131 3.999129 0.000000 8.999127 4.999129 0.000000 8.999128 5.999129 0.000000 8.999126 6.999129 0.000000 8.998989 7.999130 0.000000 8.999127 9.000000 0.000000 8.998973 10.000001 0.000000 8.999115 11.000870 0.000000 8.999130 12.000871 0.000000 8.999130 13.000871 0.000000 8.999130 14.000871 0.000000 8.999130 15.000871 0.000000 8.999130 16.000872 0.000000 8.999130 17.000872 0.000000 8.998945 18.000872 0.000000 8.998901 19.001309 0.000000 9.999131 -0.001309 0.000000 9.999131 0.999128 0.000000 9.999130 1.999128 0.000000 9.999131 2.999128 0.000000 9.999131 3.999129 0.000000 9.999129 4.999129 0.000000 9.999129 5.999129 0.000000 9.999129 6.999129 0.000000 9.999117 7.999130 0.000000 9.999129 9.000000 0.000000 9.998975 10.000001 0.000000 9.999115 11.000870 0.000000 9.999130 12.000871 0.000000 9.999130 13.000871 0.000000 9.999130 14.000871 0.000000 9.999130 15.000871 0.000000 9.999130 16.000872 0.000000 9.999130 17.000872 0.000000 9.998996 18.000872 0.000000 9.998905 19.001309 0.000000 10.999131 -0.001309 0.000000 10.999131 0.999128 0.000000 10.999131 1.999128 0.000000 10.999131 2.999128 0.000000 10.999132 3.999129 0.000000 10.999134 4.999129 0.000000 10.999134 5.999129 0.000000 10.999132 6.999129 0.000000 10.999132 7.999130 0.000000 10.999132 9.000000 0.000000 10.998975 10.000001 0.000000 10.999123 11.000870 0.000000 10.999130 12.000871 0.000000 10.999130 13.000871 0.000000 10.999130 14.000871 0.000000 10.999130 15.000871 0.000000 10.999130 16.000872 0.000000 10.999130 17.000872 0.000000 10.998997 18.000872 0.000000 10.998907 19.001309 0.000000 11.999131 -0.001309 0.000000 11.999131 0.999128 0.000000 11.999131 1.999128 0.000000 11.999131 2.999128 0.000000 11.999132 3.999129 0.000000 11.999134 4.999129 0.000000 11.999134 5.999129 0.000000 11.999132 6.999129 0.000000 11.999132 7.999130 0.000000 11.999132 9.000000 0.000000 11.998977 10.000001 0.000000 11.999124 11.000870 0.000000 11.999131 12.000871 0.000000 11.999131 13.000871 0.000000 11.999131 14.000871 0.000000 11.999131 15.000871 0.000000 11.999131 16.000872 0.000000 11.999131 17.000872 0.000000 11.999004 18.000872 0.000000 11.998917 19.001309 0.000000 12.999132 -0.001309 0.000000 12.999132 0.999128 0.000000 12.999131 1.999128 0.000000 12.999132 2.999128 0.000000 12.999132 3.999129 0.000000 12.999134 4.999129 0.000000 12.999134 5.999129 0.000000 12.999133 6.999129 0.000000 12.999133 7.999130 0.000000 12.999133 9.000000 0.000000 12.999115 10.000001 0.000000 12.999124 11.000870 0.000000 12.999131 12.000871 0.000000 12.999131 13.000871 0.000000 12.999131 14.000871 0.000000 12.999131 15.000871 0.000000 12.999131 16.000872 0.000000 12.999131 17.000872 0.000000 12.999006 18.000872 0.000000 12.998919 19.001309 0.000000 13.999132 -0.001309 0.000000 13.999132 0.999128 0.000000 13.999132 1.999128 0.000000 13.999132 2.999128 0.000000 13.999132 3.999129 0.000000 13.999134 4.999129 0.000000 13.999134 5.999129 0.000000 13.999133 6.999129 0.000000 13.999133 7.999130 0.000000 13.999133 9.000000 0.000000 13.999125 10.000001 0.000000 13.999125 11.000870 0.000000 13.999131 12.000871 0.000000 13.999131 13.000871 0.000000 13.999131 14.000871 0.000000 13.999131 15.000871 0.000000 13.999131 16.000872 0.000000 13.999131 17.000872 0.000000 13.999008 18.000872 0.000000 13.999114 19.001309 0.000000 14.999132 -0.001309 0.000000 14.999132 0.999128 0.000000 14.999132 1.999128 0.000000 14.999132 2.999128 0.000000 14.999133 3.999129 0.000000 14.999135 4.999129 0.000000 14.999135 5.999129 0.000000 14.999133 6.999129 0.000000 14.999133 7.999130 0.000000 14.999133 9.000000 0.000000 14.999125 10.000001 0.000000 14.999126 11.000870 0.000000 14.999132 12.000871 0.000000 14.999132 13.000871 0.000000 14.999132 14.000871 0.000000 14.999132 15.000871 0.000000 14.999132 16.000872 0.000000 14.999132 17.000872 0.000000 14.999010 18.000872 0.000000 14.999126 19.001309 0.000000 15.999132 -0.001309 0.000000 15.999132 0.999128 0.000000 15.999132 1.999128 0.000000 15.999132 2.999128 0.000000 15.999133 3.999129 0.000000 15.999135 4.999129 0.000000 15.999135 5.999129 0.000000 15.999134 6.999129 0.000000 15.999134 7.999130 0.000000 15.999134 9.000000 0.000000 15.999128 10.000001 0.000000 15.999128 11.000870 0.000000 15.999133 12.000871 0.000000 15.999133 13.000871 0.000000 15.999133 14.000871 0.000000 15.999132 15.000871 0.000000 15.999132 16.000872 0.000000 15.999132 17.000872 0.000000 15.999035 18.000872 0.000000 15.999126 19.001309 0.000000 16.999133 -0.001309 0.000000 16.999133 0.999128 0.000000 16.999132 1.999128 0.000000 16.999133 2.999128 0.000000 16.999133 3.999129 0.000000 16.999135 4.999129 0.000000 16.999135 5.999129 0.000000 16.999134 6.999129 0.000000 16.999134 7.999130
[...]
      <PointData Vectors="vector">
        <DataArray type="Float32" Name="Velocity" NumberOfComponents="3" format="ascii">
-0.015000 -0.009000 0.000000 -0.015000 -0.006000 0.000000 -0.015000 -0.006000 0.000000 -0.015000 -0.006000 0.000000 -0.021000 -0.006000 0.000000 -0.021000 -0.006000 0.000000 -0.021000 -0.006000 0.000000 -0.021000 -0.006000 0.000000 -0.015000 -0.006000 0.000000 -0.021000 0.000000 0.000000 -0.015000 0.000000 0.000000 -0.015000 0.006000 0.000000 -0.015000 0.006000 0.000000 -0.015000 0.006000 0.000000 -0.015000 0.006000 0.000000 -0.015000 0.006000 0.000000 -0.015000 0.006000 0.000000 -0.015000 0.006000 0.000000 -0.015000 0.006000 0.000000 -0.015000 0.009000 0.000000 -0.006000 -0.009000 0.000000 -0.006000 -0.006000 0.000000 -0.006000 -0.006000 0.000000 -0.018000 -0.006000 0.000000 -0.012000 -0.006000 0.000000 -0.018000 -0.006000 0.000000 -0.018000 -0.006000 0.000000 -0.012000 -0.006000 0.000000 -0.018000 -0.006000 0.000000 -0.012000 0.000000 0.000000 -0.018000 0.000000 0.000000 -0.018000 0.006000 0.000000 -0.006000 0.006000 0.000000 -0.006000 0.006000 0.000000 -0.006000 0.006000 0.000000 -0.006000 0.006000 0.000000 -0.006000 0.006000 0.000000 -0.006000 0.006000 0.000000 -0.018000 0.006000 0.000000 -0.018000 0.009000 0.000000 -0.006000 -0.009000 0.000000 -0.006000 -0.006000 0.000000 -0.018000 -0.006000 0.000000 -0.018000 -0.006000 0.000000 -0.018000 -0.006000 0.000000 -0.012000 -0.006000 0.000000 -0.012000 -0.006000 0.000000 -0.012000 -0.006000 0.000000 -0.018000 -0.006000 0.000000 -0.012000 0.000000 0.000000 -0.018000 0.000000 0.000000 -0.018000 0.006000 0.000000 -0.006000 0.006000 0.000000 -0.006000 0.006000 0.000000 -0.006000 0.006000 0.000000 -0.006000 0.006000 0.000000 -0.006000 0.006000 0.000000 -0.006000 0.006000 0.000000 -0.018000 0.006000 0.000000 -0.018000 0.009000 0.000000 -0.006000 -0.009000 0.000000 -0.006000 -0.006000 0.000000 -0.006000 -0.006000 0.000000 -0.018000 -0.006000 0.000000 -0.018000 -0.006000 0.000000 -0.012000 -0.006000 0.000000 -0.012000 -0.006000 0.000000 -0.012000 -0.006000 0.000000 -0.018000 -0.006000 0.000000 -0.012000 -0.000000 0.000000 -0.018000 -0.000000 0.000000 -0.012000 0.006000 0.000000 -0.006000 0.006000 0.000000 -0.006000 0.006000 0.000000 -0.006000 0.006000 0.000000 -0.006000 0.006000 0.000000 -0.006000 0.006000 0.000000 -0.006000 0.006000 0.000000 -0.018000 0.006000 0.000000 -0.018000 0.009000 0.000000 -0.006000 -0.009000 0.000000 -0.006000 -0.012000 0.000000 -0.006000 -0.005979 0.000000 -0.018000 -0.005929 0.000000 -0.017996 -0.005972 0.000000 -0.012004 -0.006000 0.000000 -0.012004 -0.005999 0.000000 -0.017996 -0.005991 0.000000 -0.018000 0.000000 0.000000 -0.018000 0.000010 0.000000 -0.018000 0.000034 0.000000 -0.012000 0.006030 0.000000 -0.006000 0.006000 0.000000 -0.006000 0.006000 0.000000 -0.006000 0.006000 0.000000 -0.006000 0.006000 0.000000 -0.006000 0.006000 0.000000 -0.006000 0.006000 0.000000 -0.018000 0.006000 0.000000 -0.018000 0.009000 0.000000 -0.006000 -0.033000 0.000000 -0.006000 -0.018000 0.000000 -0.006000 -0.018020 0.000000 -0.006000 -0.018071 0.000000 -0.006000 -0.012028 0.000000 -0.012001 -0.012001 0.000000 -0.012000 -0.012001 0.000000 -0.018000 -0.012042 0.000000 -0.018000 -0.012044 0.000000 -0.018000 -0.006031 0.000000 -0.018000 -0.000078 0.000000 -0.018000 -0.000071 0.000000 -0.006000 0.006000 0.000000 -0.006000 0.006000 0.000000 -0.006000 0.006000 0.000000 -0.006000 0.006000 0.000000 -0.006000 0.006000 0.000000 -0.006000 0.006000 0.000000 -0.018000 0.006000 0.000000 -0.018000 0.009000 0.000000 -0.006000 -0.015000 0.000000 -0.006000 -0.012000 0.000000 -0.006000 -0.011981 0.000000 -0.006000 -0.005929 0.000000 -0.005995 -0.005972 0.000000 -0.012005 -0.006000 0.000000 -0.012000 0.000001 0.000000 -0.005999 -0.005949 0.000000 -0.012001 0.000091 0.000000 -0.005999 0.000021 0.000000 -0.018001 0.006043 0.000000 -0.012000 0.006040 0.000000 -0.006000 0.006000 0.000000 -0.006000 0.006000 0.000000 -0.006000 0.006000 0.000000 -0.006000 0.006000 0.000000 -0.006000 0.006000 0.000000 -0.006000 0.006000 0.000000 -0.018000 0.006000 0.000000 -0.012000 0.009000 0.000000 -0.006000 -0.009000 0.000000 -0.006000 -0.012000 0.000000 -0.006000 -0.005999 0.000000 -0.006000 -0.006000 0.000000 -0.006000 -0.006000 0.000000 -0.006000 -0.006000 0.000000 -0.006000 -0.006000 0.000000 -0.006000 -0.006017 0.000000 -0.012000 -0.000048 0.000000 -0.006000 -0.000000 0.000000 -0.012000 -0.000000 0.000000 -0.012000 0.006000 0.000000 -0.006000 0.006000 0.000000 -0.006000 0.006000 0.000000 -0.006000 0.006000 0.000000 -0.006000 0.006000 0.000000 -0.006000 0.006000 0.000000 -0.006000 0.006000 0.000000 -0.018000 0.006000 0.000000 -0.012000 0.009000 0.000000 -0.006000 -0.009000 0.000000 -0.006000 -0.006000 0.000000 -0.006000 -0.006000 0.000000 -0.006000 -0.006000 0.000000 -0.006000 -0.006000 0.000000 -0.006000 -0.006000 0.000000 -0.006000 -0.006000 0.000000 -0.006000 -0.006000 0.000000 -0.012000 -0.006000 0.000000 -0.006000 0.000000 0.000000 -0.012000 0.000000 0.000000 -0.012000 0.006000 0.000000 -0.006000 0.006000 0.000000 -0.006000 0.006000 0.000000 -0.006000 0.006000 0.000000 -0.006000 0.006000 0.000000 -0.006000 0.006000 0.000000 -0.006000 0.006000 0.000000 -0.018000 0.006000 0.000000 -0.012000 0.009000 0.000000 -0.006000 -0.009000 0.000000 -0.006000 -0.006000 0.000000 -0.003000 -0.006000 0.000000 -0.006000 -0.006000 0.000000 -0.006000 -0.006000 0.000000 -0.006000 -0.006000 0.000000 -0.006000 -0.006000 0.000000 -0.006000 -0.006000 0.000000 -0.012000 -0.006000 0.000000 -0.006000 0.000000 0.000000 -0.012000 0.000000 0.000000 -0.006000 0.006000 0.000000 -0.006000 0.006000 0.000000 -0.006000 0.006000 0.000000 -0.006000 0.006000 0.000000 -0.006000 0.006000 0.000000 -0.006000 0.006000 0.000000 -0.006000 0.006000 0.000000 -0.018000 0.006000 0.000000 -0.012000 0.009000 0.000000 -0.006000 -0.009000 0.000000 -0.006000 -0.006000 0.000000 -0.003000 -0.006000 0.000000 -0.006000 -0.006000 0.000000 -0.006000 -0.006000 0.000000 -0.006000 -0.006000 0.000000 -0.006000 -0.006000 0.000000 -0.006000 -0.006000 0.000000 -0.006000 -0.006000 0.000000 -0.006000 -0.000000 0.000000 -0.012000 0.000000 0.000000 -0.012000 0.006000 0.000000 -0.006000 0.006000 0.000000 -0.006000 0.006000 0.000000 -0.006000 0.006000 0.000000 -0.006000 0.006000 0.000000 -0.006000 0.006000 0.000000 -0.006000 0.006000 0.000000 -0.012000 0.006000 0.000000 -0.012000 0.009000 0.000000 -0.006000 -0.009000 0.000000 -0.006000 -0.006000 0.000000 -0.006000 -0.006000 0.000000 -0.006000 -0.006000 0.000000 -0.006000 -0.006000 0.000000 -0.006000 -0.006000 0.000000 -0.006000 -0.006000 0.000000 -0.006000 -0.006000 0.000000 -0.006000 -0.006000 0.000000 -0.006000 0.000000 0.000000 -0.012000 0.000000 0.000000 -0.018000 0.006000 0.000000 -0.006000 0.006000 0.000000 -0.006000 0.006000 0.000000 -0.006000 0.006000 0.000000 -0.006000 0.006000 0.000000 -0.006000 0.006000 0.000000 -0.006000 0.006000 0.000000 -0.012000 0.006000 0.000000 -0.012000 0.009000 0.000000 -0.006000 -0.009000 0.000000 -0.006000 -0.006000 0.000000 -0.006000 -0.006000 0.000000 -0.006000 -0.006000 0.000000 -0.006000 -0.006000 0.000000 -0.006000 -0.006000 0.000000 -0.006000 -0.006000 0.000000 -0.006000 -0.006000 0.000000 -0.006000 -0.006000 0.000000 -0.006000 0.000000 0.000000 -0.012000 0.000000 0.000000 -0.015000 0.006000 0.000000 -0.006000 0.006000 0.000000 -0.006000 0.006000 0.000000 -0.006000 0.006000 0.000000 -0.006000 0.006000 0.000000 -0.006000 0.006000 0.000000 -0.006000 0.006000 0.000000 -0.012000 0.006000 0.000000 -0.012000 0.009000 0.000000 -0.006000 -0.009000 0.000000 -0.006000 -0.006000 0.000000 -0.006000 -0.006000 0.000000 -0.006000 -0.006000 0.000000 -0.006000 -0.006000 0.000000 -0.006000 -0.006000 0.000000 -0.006000 -0.006000 0.000000 -0.006000 -0.006000 0.000000 -0.006000 -0.006000 0.000000 -0.006000 0.000000 0.000000 -0.006000 0.000000 0.000000 -0.009000 0.006000 0.000000 -0.006000 0.006000 0.000000 -0.006000 0.006000 0.000000 -0.006000 0.006000 0.000000 -0.006000 0.006000 0.000000 -0.006000 0.006000 0.000000 -0.006000 0.006000 0.000000 -0.012000 0.006000 0.000000 -0.012000 0.009000 0.000000 -0.006000 -0.009000 0.000000 -0.006000 -0.006000 0.000000 -0.006000 -0.006000 0.000000 -0.006000 -0.006000 0.000000 -0.006000 -0.006000 0.000000 -0.006000 -0.006000 0.000000 -0.006000 -0.006000 0.000000 -0.006000 -0.006000 0.000000 -0.006000 -0.006000 0.000000 -0.006000 0.000000 0.000000 -0.006000 0.000000 0.000000 -0.006000 0.006000 0.000000 -0.006000 0.006000 0.000000 -0.006000 0.006000 0.000000 -0.006000 0.006000 0.000000 -0.006000 0.006000 0.000000 -0.006000 0.006000 0.000000 -0.006000 0.006000 0.000000 -0.012000 0.006000 0.000000 -0.006000 0.009000 0.000000 -0.006000 -0.009000 0.000000 -0.006000 -0.006000 0.000000 -0.006000 -0.006000 0.000000 -0.006000 -0.006000 0.000000 -0.006000 -0.006000 0.000000 -0.006000 -0.006000 0.000000 -0.006000 -0.006000 0.000000 -0.006000 -0.006000 0.000000 -0.006000 -0.006000 0.000000 -0.006000 0.000000 0.000000 -0.006000 0.000000 0.000000 -0.006000 0.006000 0.000000 -0.006000 0.006000 0.000000 -0.006000 0.006000 0.000000 -0.006000 0.006000 0.000000 -0.006000 0.006000 0.000000 -0.006000 0.006000 0.000000 -0.006000 0.006000 0.000000 -0.012000 0.006000 0.000000 -0.006000 0.009000 0.000000 -0.006000 -0.009000 0.000000 -0.006000 -0.006000 0.000000 -0.006000 -0.006000 0.000000 -0.006000 -0.006000 0.000000 -0.006000 -0.006000 0.000000 -0.006000 -0.006000 0.000000 -0.006000 -0.006000 0.000000 -0.006000 -0.006000 0.000000 -0.006000 -0.006000 0.000000 -0.006000 0.000000 0.000000 -0.006000 0.000000 0.000000 -0.006000 0.006000 0.000000 -0.006000 0.006000 0.000000 -0.006000 0.006000 0.000000 -0.006000 0.006000 0.000000 -0.006000 0.006000 0.000000 -0.006000 0.006000 0.000000 -0.006000 0.006000 0.000000 -0.012000 0.006000 0.000000 -0.006000 0.009000 0.000000 -0.006000 -0.009000 0.000000 -0.006000 -0.006000 0.000000 -0.006000 -0.006000 0.000000 -0.006000 -0.006000 0.000000 -0.006000 -0.006000 0.000000 -0.006000 -0.006000 0.000000 -0.006000 -0.006000 0.000000 -0.006000 -0.006000 0.000000 -0.006000 -0.006000 0.000000 -0.006000 0.000000 0.000000 -0.006000 0.000000 0.000000 -0.006000 0.006000 0.000000 -0.006000 0.006000 0.000000 -0.006000 0.006000 0.000000 -0.006000 0.006000 0.000000 -0.006000 0.006000 0.000000 -0.006000 0.006000 0.000000 -0.006000 0.006000 0.000000 -0.012000 0.006000 0.000000 -0.006000 0.009000 0.000000 -0.006000 -0.009000 0.000000 -0.006000 -0.006000 0.000000 -0.006000 -0.006000 0.000000 -0.006000 -0.006000 0.000000 -0.006000 -0.006000 0.000000 -0.006000 -0.006000 0.000000 -0.009000 -0.006000 0.000000 -0.006000 -0.006000 0.000000 -0.006000 -0.006000 0.000000 -0.006000 0.000000 0.000000 -0.006000 0.000000 0.000000 -0.006000 0.006000 0.000000 -0.006000 0.006000 0.000000 -0.006000 0.006000 0.000000 -0.006000 0.006000 0.000000 -0.006000 0.006000 0.000000 -0.006000 0.006000 0.000000 -0.006000 0.006000 0.000000 -0.006000 0.006000 0.000000 -0.006000 0.009000 0.000000 -0.006000 -0.009000 0.000000 -0.006000 -0.006000 0.000000 -0.006000 -0.006000 0.000000 -0.006000 -0.006000 0.000000 -0.006000 -0.006000 0.000000 -0.006000 -0.006000 0.000000 -0.009000 -0.006000 0.000000 -0.006000 -0.006000 0.000000 -0.006000 -0.006000 0.000000 -0.006000 0.000000 0.000000 -0.006000 0.000000 0.000000 -0.006000 0.006000 0.000000 -0.006000 0.006000 0.000000 -0.006000 0.006000 0.000000 -0.006000 0.006000 0.000000 -0.006000 0.006000 0.000000 -0.006000 0.006000 0.000000 -0.006000 0.006000 0.000000 -0.006000 0.006000 0.000000 -0.006000 0.009000 0.000000 -0.006000 -0.009000 0.000000 -0.006000 -0.006000 0.000000 -0.006000 -0.006000 0.000000 -0.006000 -0.006000 0.000000 -0.006000 -0.006000 0.000000 -0.006000 -0.006000 0.000000 -0.006000 -0.006000 0.000000 -0.006000 -0.006000 0.000000 -0.006000 -0.006000 0.000000 -0.006000 0.000000 0.000000 -0.006000 0.000000 0.000000 -0.006000 0.006000 0.000000 -0.006000 0.006000 0.000000 -0.006000 0.006000 0.000000 -0.006000 0.006000 0.000000 -0.006000 0.006000 0.000000 -0.006000 0.006000 0.000000 -0.006000 0.006000 0.000000 -0.006000 0.006000 0.000000 -0.006000 0.009000 0.000000 -0.006000 -0.009000 0.000000 -0.006000 -0.006000 0.000000 -0.006000 -0.006000 0.000000 -0.006000 -0.006000 0.000000 -0.006000 -0.006000 0.000000 -0.006000 -0.006000 0.000000 -0.006000 -0.006000 0.000000 -0.006000 -0.006000 0.000000 -0.006000 -0.006000 0.000000 -0.006000 0.000000 0.000000 -0.006000 0.000000 0.000000 -0.006000 0.006000 0.000000 -0.006000 0.006000 0.000000 -0.006000 0.006000 0.000000 -0.006000 0.006000 0.000000 -0.006000 0.006000 0.000000 -0.006000 0.006000 0.000000 -0.006000 0.006000 0.000000 -0.006000 0.006000 0.000000 -0.006000 0.009000 0.000000 -0.006000 -0.009000 0.000000 -0.006000 -0.006000 0.000000 -0.006000 -0.006000 0.000000 -0.006000 -0.006000 0.000000 -0.006000 -0.006000 0.000000 -0.006000 -0.006000 0.000000 -0.006000 -0.006000 0.000000 -0.006000 -0.006000 0.000000 -0.006000 -0.006000 0.000000 -0.006000 0.000000 0.000000 -0.006000 0.000000 0.000000 -0.000000 0.006000 0.000000 -0.006000 0.006000 0.000000 -0.006000 0.006000 0.000000 -0.006000 0.006000 0.000000 -0.006000 0.006000 0.000000 -0.006000 0.006000 0.000000 -0.006000 0.006000 0.000000 0.000000 0.006000 0.000000 -0.006000 0.009000 0.000000 -0.006000 -0.009000 0.000000 -0.006000 -0.006000 0.000000 -0.006000 -0.006000 0.000000 -0.006000 -0.006000 0.000000 -0.006000 -0.006000 0.000000 -0.006000 -0.006000 0.000000 -0.006000 -0.006000 0.000000 -0.006000 -0.006000 0.000000 -0.006000 -0.006000 0.000000 -0.006000 0.000000 0.000000 -0.006000 0.000000 0.000000 0.006000 0.006000 0.000000 -0.006000 0.006000 0.000000 -0.006000 0.006000 0.000000 -0.006000 0.006000 0.000000 -0.006000 0.006000 0.000000 -0.006000 0.006000 0.000000 -0.006000 0.006000 0.000000 0.000000 0.006000 0.000000 -0.006000 0.009000 0.000000 -0.006000 -0.009000 0.000000 -0.006000 -0.006000 0.000000 -0.006000 -0.006000 0.000000 -0.006000 -0.006000 0.000000 -0.006000 -0.006000 0.000000 -0.006000 -0.006000 0.000000 -0.006000 -0.006000 0.000000 -0.006000 -0.006000 0.000000 -0.006000 -0.006000 0.000000 -0.006000 0.000000 0.000000 -0.006000 0.000000 0.000000 0.006000 0.006000 0.000000 -0.006000 0.006000 0.000000 -0.006000 0.006000 0.000000 -0.006000 0.006000 0.000000 -0.006000 0.006000 0.000000 -0.006000 0.006000 0.000000 -0.006000 0.006000 0.000000 -0.000000 0.006000 0.000000 -0.006000 0.009000 0.000000 -0.006000 -0.009000 0.000000 -0.006000 -0.006000 0.000000 -0.006000 -0.006000 0.000000 -0.006000 -0.006000 0.000000 -0.006000 -0.006000 0.000000 -0.006000 -0.006000 0.000000 -0.006000 -0.006000 0.000000 -0.006000 -0.006000 0.000000 -0.006000 -0.006000 0.000000 -0.006000 0.000000 0.000000 -0.006000 0.000000 0.000000 -0.006000 0.006000 0.000000 -0.006000 0.006000 0.000000 -0.006000 0.006000 0.000000 -0.006000 0.006000 0.000000 -0.006000 0.006000 0.000000 -0.006000 0.006000 0.000000 -0.006000 0.006000 0.000000 0.000000 0.006000 0.000000 -0.006000 0.009000 0.000000 -0.006000 -0.009000 0.000000 -0.006000 -0.006000 0.000000 -0.006000 -0.006000 0.000000 -0.006000 -0.006000 0.000000 -0.006000 -0.006000 0.000000 -0.006000 -0.006000 0.000000 -0.006000 -0.006000 0.000000 -0.006000 -0.006000 0.000000 -0.006000 -0.006000 0.000000 -0.006000 0.000000 0.000000 -0.006000 0.000000 0.000000 -0.006000 0.006000 0.000000 -0.006000 0.006000 0.000000 -0.006000 0.006000 0.000000 -0.006000 0.006000 0.000000 -0.006000 0.006000 0.000000 -0.006000 0.006000 0.000000 -0.006000 0.006000 0.000000 0.000000 0.006000 0.000000 0.000000 0.009000 0.000000 -0.006000 -0.009000 0.000000 -0.006000 -0.006000 0.000000 -0.006000 -0.006000 0.000000 -0.006000 -0.006000 0.000000 -0.006000 -0.006000 0.000000 -0.006000 -0.006000 0.000000 -0.006000 -0.006000 0.000000 -0.006000 -0.006000 0.000000 -0.006000 -0.006000 0.000000 -0.006000 0.000000 0.000000 -0.000000 0.000000 0.000000 -0.012000 0.006000 0.000000 -0.006000 0.006000 0.000000 -0.006000 0.006000 0.000000 -0.006000 0.006000 0.000000 -0.006000 0.006000 0.000000 -0.006000 0.006000 0.000000 -0.006000 0.006000 0.000000 0.006000 0.006000 0.000000 -0.000000 0.009000 0.000000 -0.006000 -0.009000 0.000000 -0.006000 -0.006000 0.000000 -0.006000 -0.006000 0.000000 -0.006000 -0.006000 0.000000 -0.006000 -0.006000 0.000000 -0.006000 -0.006000 0.000000 -0.006000 -0.006000 0.000000 -0.006000 -0.006000 0.000000 -0.006000 -0.006000 0.000000 -0.000000 -0.000000 0.000000 -0.000000 -0.000000 0.000000 -0.000000 0.006000 0.000000 -0.006000 0.006000 0.000000 -0.006000 0.006000 0.000000 -0.006000 0.006000 0.000000 -0.006000 0.006000 0.000000 -0.006000 0.006000 0.000000 -0.006000 0.006000 0.000000 0.006000 0.006000 0.000000 -0.000000 0.009000 0.000000 -0.006000 -0.009000 0.000000 -0.006000 -0.012000 0.000000 -0.006000 -0.005973 0.000000 -0.006000 -0.005969 0.000000 -0.006000 -0.005980 0.000000 -0.006000 -0.006000 0.000000 -0.006000 -0.005971 0.000000 -0.006001 -0.005993 0.000000 0.000001 0.000022 0.000000 -0.006000 0.000087 0.000000 0.000000 0.000117 0.000000 0.000001 0.000337 0.000000 -0.006000 0.006000 0.000000 -0.006000 0.006000 0.000000 -0.006000 0.006000 0.000000 -0.006000 0.006000 0.000000 -0.006000 0.006000 0.000000 -0.006002 0.006000 0.000000 0.012002 0.012295 0.000000 0.000000 0.009155 0.000000 -0.006000 -0.267003 0.000000 -0.006000 -0.264002 0.000000 -0.006001 -0.372026 0.000000 -0.006000 -0.252035 0.000000 -0.006002 -0.276018 0.000000 -0.005997 -0.264009 0.000000 -0.005997 -0.294041 0.000000 -0.006080 -0.282012 0.000000 0.000169 -0.291645 0.000000 -0.006231 -0.329497 0.000000 0.000299 -0.285258 0.000000 -0.006164 -0.297606 0.000000 -0.005996 -0.284663 0.000000 -0.006000 -0.201792 0.000000 -0.006000 -0.365918 0.000000 -0.006000 -0.192245 0.000000 -0.005999 -0.221876 0.000000 -0.012137 -0.312197 0.000000 -0.007372 -9.520371 0.000000 0.003374 -0.372464 0.000000 -0.006000 -0.273003 0.000000 -0.006000 -0.318001 0.000000 -0.006000 -0.320999 0.000000 -0.006001 -0.303003 0.000000 -0.006002 -0.275998 0.000000 -0.005997 -0.276001 0.000000 -0.005998 -0.216015 0.000000 -0.006077 -0.215989 0.000000 0.000161 -0.282621 0.000000 -0.000235 -0.392472 0.000000 0.000321 -0.327067 0.000000 -0.000174 -0.330306 0.000000 -0.005999 -0.194619 0.000000 -0.006000 -0.228779 0.000000 -0.006000 -0.341931 0.000000 -0.006000 -0.192241 0.000000 -0.005999 -0.221883 0.000000 -0.006150 -0.312855 0.000000 -0.007894 -9.629571 0.000000 0.004302 -0.408263 0.000000 -0.006000 -0.279003 0.000000 -0.006000 -0.348002 0.000000 -0.006009 -0.264000 0.000000 0.000002 -0.246004 0.000000 -0.005976 -0.287999 0.000000 -0.006017 -0.270001 0.000000 -0.000047 -0.282002 0.000000 -0.005980 -0.249011 0.000000 0.000126 -0.312612 0.000000 -0.006242 -0.293451 0.000000 0.000312 -0.324083 0.000000 -0.000169 -0.288302 0.000000 -0.006000 -0.314696 0.000000 -0.006000 -0.201729 0.000000 -0.006000 -0.341898 0.000000 -0.006000 -0.192270 0.000000 -0.005999 -0.221874 0.000000 -0.006171 -0.309761 0.000000 -0.001859 -9.448048 0.000000 0.004160 -0.376059 0.000000 -0.006000 -0.279005 0.000000 -0.006000 -0.320999 0.000000 -0.006020 -0.291000 0.000000 0.000018 -0.261000 0.000000 -0.000993 -0.273000 0.000000 -0.004948 -0.252013 0.000000 -0.004773 -0.288004 0.000000 -0.001301 -0.321002 0.000000 0.000121 -0.246614 0.000000 -0.006279 -0.275446 0.000000 0.000375 -0.276083 0.000000 0.005802 -0.258297 0.000000 -0.006000 -0.380664 0.000000 -0.006000 -0.198813 0.000000 -0.006000 -0.374880 0.000000 -0.006000 -0.192239 0.000000 -0.005999 -0.221883 0.000000 -0.006195 -0.312856 0.000000 -0.007810 -9.629571 0.000000 0.004107 -0.407665 0.000000 -0.006000 -0.285005 0.000000 -0.006000 -0.338999 0.000000 -0.006024 -0.273000 0.000000 0.000014 -0.246000 0.000000 0.005009 -0.282000 0.000000 0.001058 -0.288008 0.000000 0.001240 -0.240008 0.000000 -0.001325 -0.306001 0.000000 0.000143 -0.273616 0.000000 -0.000325 -0.281446 0.000000 0.000451 -0.276083 0.000000 -0.000241 -0.258297 0.000000 -0.006001 -0.380664 0.000000 -0.006000 -0.192813 0.000000 -0.006000 -0.374880 0.000000 -0.006000 -0.192239 0.000000 -0.005999 -0.221883 0.000000 -0.006215 -0.312856 0.