<VTKFile type="UnstructuredGrid" version="0.1" byte_order="LittleEndian">
  <UnstructuredGrid>
    <Piece NumberOfPoints="2000" NumberOfCells="0">
      <Points>
        <DataArray name="Position" type="Float32" NumberOfComponents="3" format="ascii">
-0.005326 -0.003199 0.000000 -0.005326 0.997868 0.000000 -0.005326 1.997868 0.000000 -0.005326 2.997868 0.000000 -0.007291 3.997869 0.000000 -0.007425 4.997869 0.000000 -0.007411 5.997869 0.000000 -0.007446 6.997869 0.000000 -0.005317 7.997870 0.000000 -0.007445 9.000000 0.000000 -0.005313 10.000001 0.000000 -0.005312 11.002130 0.000000 -0.005314 12.002131 0.000000 -0.005314 13.002131 0.000000 -0.005314 14.002131 0.000000 -0.005308 15.002131 0.000000 -0.005308 16.002132 0.000000 -0.005502 17.002132 0.000000 -0.005308 18.002132 0.000000 -0.016280 19.003199 0.000000 0.997865 -0.003199 0.000000 0.997865 0.997868 0.000000 0.995347 1.997868 0.000000 0.995083 2.997868 0.000000 0.995069 3.997869 0.000000 0.993647 4.997869 0.000000 0.993717 5.997869 0.000000 0.995065 6.997869 0.000000 0.995048 7.997870 0.000000 0.995316 9.000000 0.000000 0.995014 10.000001 0.000000 0.995270 11.002130 0.000000 0.997328 12.002131 0.000000 0.997859 13.002131 0.000000 0.997859 14.002131 0.000000 0.997856 15.002131 0.000000 0.997856 16.002132 0.000000 0.994551 17.002132 0.000000 0.995075 18.002132 0.000000 0.983792 19.003199 0.000000 1.997868 -0.003199 0.000000 1.997868 0.997868 0.000000 1.997864 1.997868 0.000000 1.995087 2.997868 0.000000 1.995104 3.997869 0.000000 1.995515 4.997869 0.000000 1.995372 5.997869 0.000000 1.995095 6.997869 0.000000 1.995049 7.997870 0.000000 1.995337 9.000000 0.000000 1.995039 10.000001 0.000000 1.995300 11.002130 0.000000 1.997350 12.002131 0.000000 1.997868 13.002131 0.000000 1.997868 14.002131 0.000000 1.997868 15.002131 0.000000 1.997868 16.002132 0.000000 1.994533 17.002132 0.000000 1.995085 18.002132 0.000000 1.983855 19.003199 0.000000 2.997868 -0.003199 0.000000 2.997868 0.997475 0.000000 2.997868 1.997867 0.000000 2.995092 2.997866 0.000000 2.995122 3.997868 0.000000 2.995526 4.997868 0.000000 2.995726 5.997869 0.000000 2.995741 6.997870 0.000000 2.995051 7.998266 0.000000 2.995541 9.000000 0.000000 2.995043 10.000001 0.000000 2.995322 11.002130 0.000000 2.997350 12.002131 0.000000 2.997868 13.002131 0.000000 2.997868 14.002131 0.000000 2.997868 15.002131 0.000000 2.997868 16.002132 0.000000 2.994698 17.002132 0.000000 2.995102 18.002132 0.000000 2.984036 19.003194 0.000000 3.997868 -0.003715 0.000000 3.997868 0.996649 0.000000 3.997868 1.996805 0.000000 3.995160 2.996888 0.000000 3.995657 3.997058 0.000000 3.995732 4.998860 0.000000 3.995742 5.998948 0.000000 3.995745 6.999096 0.000000 3.995051 7.999194 0.000000 3.995741 9.000003 0.000000 3.995062 10.000009 0.000000 3.995345 11.000904 0.000000 3.997597 12.002131 0.000000 3.997868 13.002131 0.000000 3.997868 14.002131 0.000000 3.997868 15.002132 0.000000 3.997868 16.002132 0.000000 3.994758 17.002133 0.000000 3.995109 18.003032 0.000000 3.984261 19.003543 0.000000 4.997869 -0.011632 0.000000 4.997869 0.992100 0.000000 4.997867 1.993590 0.000000 4.997849 2.995116 0.000000 4.996882 3.995719 0.000000 4.995744 4.995737 0.000000 4.995744 5.995745 0.000000 4.995746 6.995749 0.000000 4.995088 7.996473 0.000000 4.995743 8.997860 0.000000 4.995064 9.999237 0.000000 4.995345 10.999981 0.000000 4.997597 12.002131 0.000000 4.997869 13.002131 0.000000 4.997869 14.002131 0.000000 4.997869 15.002131 0.000000 4.997869 16.002132 0.000000 4.994778 17.002132 0.000000 4.995130 18.002132 0.000000 4.984392 19.003192 0.000000 5.997870 -0.005319 0.000000 5.997870 0.995776 0.000000 5.997870 1.996544 0.000000 5.997870 2.996886 0.000000 5.997040 3.997872 0.000000 5.995748 4.998687 0.000000 5.995775 5.998866 0.000000 5.997462 6.999198 0.000000 5.996456 7.999981 0.000000 5.995745 9.000006 0.000000 5.995079 10.000972 0.000000 5.995405 11.001334 0.000000 5.997605 12.002131 0.000000 5.997869 13.002131 0.000000 5.997869 14.002131 0.000000 5.997869 15.002132 0.000000 5.997869 16.002132 0.000000 5.994841 17.002133 0.000000 5.995131 18.003103 0.000000 5.984795 19.003395 0.000000 6.997870 -0.003764 0.000000 6.997870 0.996608 0.000000 6.997870 1.997084 0.000000 6.997870 2.997464 0.000000 6.997644 3.997868 0.000000 6.995958 4.997867 0.000000 6.995784 5.998275 0.000000 6.997859 6.999123 0.000000 6.996462 7.999212 0.000000 6.997859 8.999999 0.000000 6.996440 10.000001 0.000000 6.996567 11.002130 0.000000 6.997615 12.002131 0.000000 6.997869 13.002131 0.000000 6.997869 14.002131 0.000000 6.997869 15.002131 0.000000 6.997869 16.002132 0.000000 6.994919 17.002132 0.000000 6.995131 18.002132 0.000000 6.984814 19.003198 0.000000 7.997870 -0.003199 0.000000 7.997870 0.997808 0.000000 7.997870 1.997867 0.000000 7.997870 2.997868 0.000000 7.997872 3.997868 0.000000 7.997859 4.997868 0.000000 7.997859 5.997869 0.000000 7.997864 6.997871 0.000000 7.996465 7.997929 0.000000 7.997865 8.999999 0.000000 7.996448 10.000001 0.000000 7.996578 11.002130 0.000000 7.997857 12.002131 0.000000 7.997869 13.002131 0.000000 7.997869 14.002131 0.000000 7.997869 15.002131 0.000000 7.997869 16.002132 0.000000 7.994938 17.002132 0.000000 7.995135 18.002132 0.000000 7.984879 19.003199 0.000000 8.997870 -0.003199 0.000000 8.997870 0.997868 0.000000 8.997870 1.997868 0.000000 8.997870 2.997868 0.000000 8.997872 3.997869 0.000000 8.997866 4.997869 0.000000 8.997860 5.997869 0.000000 8.997865 6.997869 0.000000 8.996469 7.997870 0.000000 8.997866 9.000000 0.000000 8.996453 10.000001 0.000000 8.996582 11.002130 0.000000 8.997868 12.002131 0.000000 8.997870 13.002131 0.000000 8.997870 14.002131 0.000000 8.997870 15.002131 0.000000 8.997870 16.002132 0.000000 8.994944 17.002132 0.000000 8.995165 18.002132 0.000000 8.984892 19.003199 0.000000 9.997871 -0.003199 0.000000 9.997871 0.997868 0.000000 9.997871 1.997868 0.000000 9.997871 2.997868 0.000000 9.997872 3.997869 0.000000 9.997867 4.997869 0.000000 9.997866 5.997869 0.000000 9.997866 6.997869 0.000000 9.997857 7.997870 0.000000 9.997866 9.000000 0.000000 9.996455 10.000001 0.000000 9.996584 11.002130 0.000000 9.997868 12.002131 0.000000 9.997870 13.002131 0.000000 9.997870 14.002131 0.000000 9.997870 15.002131 0.000000 9.997870 16.002132 0.000000 9.995002 17.002132 0.000000 9.996476 18.002132 0.000000 9.984919 19.003199 0.000000 10.997871 -0.003199 0.000000 10.997871 0.997868 0.000000 10.997871 1.997868 0.000000 10.997871 2.997868 0.000000 10.997873 3.997869 0.000000 10.997874 4.997869 0.000000 10.997873 5.997869 0.000000 10.997872 6.997869 0.000000 10.997872 7.997870 0.000000 10.997872 9.000000 0.000000 10.996455 10.000001 0.000000 10.996593 11.002130 0.000000 10.997869 12.002131 0.000000 10.997870 13.002131 0.000000 10.997870 14.002131 0.000000 10.997870 15.002131 0.000000 10.997870 16.002132 0.000000 10.995015 17.002132 0.000000 10.996477 18.002132 0.000000 10.985009 19.003199 0.000000 11.997871 -0.003199 0.000000 11.997871 0.997868 0.000000 11.997871 1.997868 0.000000 11.997871 2.997868 0.000000 11.997873 3.997869 0.000000 11.997874 4.997869 0.000000 11.997873 5.997869 0.000000 11.997872 6.997869 0.000000 11.997872 7.997870 0.000000 11.997872 9.000000 0.000000 11.996457 10.000001 0.000000 11.996595 11.002130 0.000000 11.997869 12.002131 0.000000 11.997871 13.002131 0.000000 11.997871 14.002131 0.000000 11.997871 15.002131 0.000000 11.997871 16.002132 0.000000 11.995011 17.002132 0.000000 11.996484 18.002132 0.000000 11.985054 19.003199 0.000000 12.997872 -0.003199 0.000000 12.997872 0.997868 0.000000 12.997872 1.997868 0.000000 12.997872 2.997868 0.000000 12.997873 3.997869 0.000000 12.997874 4.997869 0.000000 12.997874 5.997869 0.000000 12.997873 6.997869 0.000000 12.997873 7.997870 0.000000 12.997873 9.000000 0.000000 12.997855 10.000001 0.000000 12.997853 11.002130 0.000000 12.997869 12.002131 0.000000 12.997871 13.002131 0.000000 12.997871 14.002131 0.000000 12.997871 15.002131 0.000000 12.997871 16.002132 0.000000 12.995013 17.002132 0.000000 12.996486 18.002132 0.000000 12.985055 19.003199 0.000000 13.997872 -0.003199 0.000000 13.997872 0.997868 0.000000 13.997872 1.997868 0.000000 13.997872 2.997868 0.000000 13.997874 3.997869 0.000000 13.997874 4.997869 0.000000 13.997874 5.997869 0.000000 13.997873 6.997869 0.000000 13.997873 7.997870 0.000000 13.997873 9.000000 0.000000 13.997865 10.000001 0.000000 13.997863 11.002130 0.000000 13.997869 12.002131 0.000000 13.997871 13.002131 0.000000 13.997871 14.002131 0.000000 13.997871 15.002131 0.000000 13.997871 16.002132 0.000000 13.995016 17.002132 0.000000 13.996488 18.002132 0.000000 13.985049 19.003199 0.000000 14.997872 -0.003199 0.000000 14.997872 0.997868 0.000000 14.997872 1.997868 0.000000 14.997872 2.997868 0.000000 14.997874 3.997869 0.000000 14.997875 4.997869 0.000000 14.997874 5.997869 0.000000 14.997873 6.997869 0.000000 14.997873 7.997870 0.000000 14.997873 9.000000 0.000000 14.997865 10.000001 0.000000 14.997865 11.002130 0.000000 14.997873 12.002131 0.000000 14.997872 13.002131 0.000000 14.997872 14.002131 0.000000 14.997872 15.002131 0.000000 14.997872 16.002132 0.000000 14.995032 17.002132 0.000000 14.996490 18.002132 0.000000 14.985102 19.003199 0.000000 15.997872 -0.003199 0.000000 15.997872 0.997868 0.000000 15.997872 1.997868 0.000000 15.997872 2.997868 0.000000 15.997874 3.997869 0.000000 15.997875 4.997869 0.000000 15.997875 5.997869 0.000000 15.997874 6.997869 0.000000 15.997874 7.997870 0.000000 15.997874 9.000000 0.000000 15.997868 10.000001 0.000000 15.997868 11.002130 0.000000 15.997875 12.002131 0.000000 15.997873 13.002131 0.000000 15.997873 14.002131 0.000000 15.997872 15.002131 0.000000 15.997872 16.002132 0.000000 15.995021 17.002132 0.000000 15.996515 18.002132 0.000000 15.985202 19.003199 0.000000 16.997873 -0.003199 0.000000 16.997873 0.997868 0.000000 16.997873 1.997868 0.000000 16.997873 2.997868 0.000000 16.997875 3.997869 0.000000 16.997875 4.997869 0.000000 16.997875 5.997869 0.000000 16.997874 6.997869 0.000000 16.997874 7.997870
[...]
      <PointData Vectors="vector">
        <DataArray type="Float32" Name="Velocity" NumberOfComponents="3" format="ascii">
-0.015000 -0.009000 0.000000 -0.015000 -0.006000 0.000000 -0.015000 -0.006000 0.000000 -0.015000 -0.006000 0.000000 -0.021000 -0.006000 0.000000 -0.021000 -0.006000 0.000000 -0.021000 -0.006000 0.000000 -0.021000 -0.006000 0.000000 -0.015000 -0.006000 0.000000 -0.021000 0.000000 0.000000 -0.015000 0.000000 0.000000 -0.015000 0.006000 0.000000 -0.015000 0.006000 0.000000 -0.015000 0.006000 0.000000 -0.015000 0.006000 0.000000 -0.015000 0.006000 0.000000 -0.015000 0.006000 0.000000 -0.195008 0.006000 0.000000 -0.015000 0.006000 0.000000 -0.339004 0.009000 0.000000 -0.006000 -0.009000 0.000000 -0.006000 -0.006000 0.000000 -0.018000 -0.006000 0.000000 -0.018000 -0.006000 0.000000 -0.018000 -0.006000 0.000000 -0.018000 -0.006000 0.000000 -0.018000 -0.006000 0.000000 -0.018000 -0.006000 0.000000 -0.018000 -0.006000 0.000000 -0.018000 0.000000 0.000000 -0.018000 0.000000 0.000000 -0.018000 0.006000 0.000000 -0.018000 0.006000 0.000000 -0.006000 0.006000 0.000000 -0.006000 0.006000 0.000000 -0.006000 0.006000 0.000000 -0.006000 0.006000 0.000000 -0.038993 0.006000 0.000000 -0.018000 0.006000 0.000000 -0.378013 0.009000 0.000000 -0.006000 -0.009000 0.000000 -0.006000 -0.006000 0.000000 -0.006000 -0.006000 0.000000 -0.018000 -0.006000 0.000000 -0.018000 -0.006000 0.000000 -0.018000 -0.006000 0.000000 -0.018000 -0.006000 0.000000 -0.018000 -0.006000 0.000000 -0.018000 -0.006000 0.000000 -0.018000 0.000000 0.000000 -0.018000 0.000000 0.000000 -0.018000 0.006000 0.000000 -0.018000 0.006000 0.000000 -0.006000 0.006000 0.000000 -0.006000 0.006000 0.000000 -0.006000 0.006000 0.000000 -0.006000 0.006000 0.000000 -0.135003 0.006000 0.000000 -0.018000 0.006000 0.000000 -0.395994 0.009001 0.000000 -0.006000 -0.009000 0.000000 -0.006000 -0.012000 0.000000 -0.005988 -0.006000 0.000000 -0.018012 -0.006000 0.000000 -0.018001 -0.005997 0.000000 -0.017999 -0.006009 0.000000 -0.012000 -0.006004 0.000000 -0.011998 -0.006007 0.000000 -0.018002 0.000000 0.000000 -0.018000 -0.000000 0.000000 -0.018000 -0.000000 0.000000 -0.018000 0.006000 0.000000 -0.018000 0.006000 0.000000 -0.006000 0.006000 0.000000 -0.006000 0.006000 0.000000 -0.006000 0.006000 0.000000 -0.006000 0.006000 0.000000 -0.179999 0.006000 0.000000 -0.018000 0.006000 0.000000 -0.306008 0.008809 0.000000 -0.006000 -0.015000 0.000000 -0.006000 -0.012000 0.000000 -0.005985 -0.011979 0.000000 -0.018016 -0.011929 0.000000 -0.011986 -0.005975 0.000000 -0.012013 0.000042 0.000000 -0.012007 0.000020 0.000000 -0.011993 0.000027 0.000000 -0.018000 0.000000 0.000000 -0.012000 0.000032 0.000000 -0.018000 0.000034 0.000000 -0.018000 0.000041 0.000000 -0.012000 0.006000 0.000000 -0.006000 0.006000 0.000000 -0.006000 0.006000 0.000000 -0.006000 0.006000 0.000000 -0.006000 0.006000 0.000000 -0.167997 0.006001 0.000000 -0.018001 0.006000 0.000000 -0.300049 0.015411 0.000000 -0.006000 -0.033000 0.000000 -0.006000 -0.030000 0.000000 -0.006000 -0.018020 0.000000 -0.012000 -0.006082 0.000000 -0.012000 -0.012035 0.000000 -0.012001 -0.012065 0.000000 -0.012000 -0.012031 0.000000 -0.012000 -0.012055 0.000000 -0.018000 -0.012044 0.000000 -0.012000 -0.006065 0.000000 -0.018000 -0.000078 0.000000 -0.018000 -0.000092 0.000000 -0.012000 0.006000 0.000000 -0.006000 0.006000 0.000000 -0.006000 0.006000 0.000000 -0.006000 0.006000 0.000000 -0.006000 0.006000 0.000000 -0.156003 0.005999 0.000000 -0.018000 0.006000 0.000000 -0.306107 0.008740 0.000000 -0.006000 -0.015000 0.000000 -0.006000 -0.012000 0.000000 -0.006000 -0.011981 0.000000 -0.006000 -0.011914 0.000000 -0.011988 -0.005958 0.000000 -0.012012 -0.005958 0.000000 -0.012009 0.000021 0.000000 -0.017990 0.000051 0.000000 -0.012001 0.000091 0.000000 -0.011999 0.000033 0.000000 -0.018003 0.000043 0.000000 -0.017999 0.006051 0.000000 -0.011999 0.006000 0.000000 -0.006000 0.006000 0.000000 -0.006000 0.006000 0.000000 -0.006000 0.006000 0.000000 -0.006000 0.006000 0.000000 -0.161997 0.006001 0.000000 -0.017992 0.006000 0.000000 -0.311968 0.015084 0.000000 -0.006000 -0.015000 0.000000 -0.006000 -0.012000 0.000000 -0.006000 -0.005999 0.000000 -0.006000 -0.011998 0.000000 -0.011991 -0.006000 0.000000 -0.006009 -0.006009 0.000000 -0.012001 -0.000005 0.000000 -0.006000 -0.000005 0.000000 -0.012000 -0.000048 0.000000 -0.006000 -0.000000 0.000000 -0.012000 -0.000000 0.000000 -0.012000 0.006000 0.000000 -0.012000 0.006000 0.000000 -0.006000 0.006000 0.000000 -0.006000 0.006000 0.000000 -0.006000 0.006000 0.000000 -0.006000 0.006000 0.000000 -0.192003 0.005999 0.000000 -0.018000 0.006000 0.000000 -0.323918 0.008956 0.000000 -0.006000 -0.009000 0.000000 -0.006000 -0.012000 0.000000 -0.006000 -0.006000 0.000000 -0.006000 -0.005995 0.000000 -0.006000 -0.006000 0.000000 -0.006000 -0.006000 0.000000 -0.006000 -0.006000 0.000000 -0.005992 -0.006013 0.000000 -0.012008 0.000000 0.000000 -0.006000 0.000000 0.000000 -0.012000 0.000000 0.000000 -0.012000 0.006000 0.000000 -0.006000 0.006000 0.000000 -0.006000 0.006000 0.000000 -0.006000 0.006000 0.000000 -0.006000 0.006000 0.000000 -0.006000 0.006000 0.000000 -0.162006 0.006000 0.000000 -0.018000 0.006000 0.000000 -0.306106 0.009000 0.000000 -0.006000 -0.009000 0.000000 -0.006000 -0.006000 0.000000 -0.006000 -0.006000 0.000000 -0.006000 -0.006000 0.000000 -0.006000 -0.006000 0.000000 -0.006000 -0.006000 0.000000 -0.018000 -0.006000 0.000000 -0.006000 -0.006000 0.000000 -0.012000 -0.006000 0.000000 -0.006000 0.000000 0.000000 -0.012000 0.000000 0.000000 -0.012000 0.006000 0.000000 -0.006000 0.006000 0.000000 -0.006000 0.006000 0.000000 -0.006000 0.006000 0.000000 -0.006000 0.006000 0.000000 -0.006000 0.006000 0.000000 -0.167998 0.006000 0.000000 -0.018000 0.006000 0.000000 -0.276051 0.009000 0.000000 -0.006000 -0.009000 0.000000 -0.006000 -0.006000 0.000000 -0.006000 -0.006000 0.000000 -0.006000 -0.006000 0.000000 -0.006000 -0.006000 0.000000 -0.006000 -0.006000 0.000000 -0.006000 -0.006000 0.000000 -0.006000 -0.006000 0.000000 -0.006000 -0.006000 0.000000 -0.006000 -0.000000 0.000000 -0.012000 0.000000 0.000000 -0.012000 0.006000 0.000000 -0.006000 0.006000 0.000000 -0.006000 0.006000 0.000000 -0.006000 0.006000 0.000000 -0.006000 0.006000 0.000000 -0.006000 0.006000 0.000000 -0.186007 0.006000 0.000000 -0.012000 0.006000 0.000000 -0.287855 0.009000 0.000000 -0.006000 -0.009000 0.000000 -0.006000 -0.006000 0.000000 -0.006000 -0.006000 0.000000 -0.006000 -0.006000 0.000000 -0.006000 -0.006000 0.000000 -0.006000 -0.006000 0.000000 -0.000000 -0.006000 0.000000 -0.006000 -0.006000 0.000000 -0.006000 -0.006000 0.000000 -0.006000 0.000000 0.000000 -0.012000 0.000000 0.000000 -0.012000 0.006000 0.000000 -0.006000 0.006000 0.000000 -0.006000 0.006000 0.000000 -0.006000 0.006000 0.000000 -0.006000 0.006000 0.000000 -0.006000 0.006000 0.000000 -0.159017 0.006000 0.000000 -0.012000 0.006000 0.000000 -0.324060 0.009000 0.000000 -0.006000 -0.009000 0.000000 -0.006000 -0.006000 0.000000 -0.006000 -0.006000 0.000000 -0.006000 -0.006000 0.000000 -0.006000 -0.006000 0.000000 -0.006000 -0.006000 0.000000 -0.006000 -0.006000 0.000000 -0.006000 -0.006000 0.000000 -0.006000 -0.006000 0.000000 -0.006000 0.000000 0.000000 -0.012000 0.000000 0.000000 -0.012000 0.006000 0.000000 -0.006000 0.006000 0.000000 -0.006000 0.006000 0.000000 -0.006000 0.006000 0.000000 -0.006000 0.006000 0.000000 -0.006000 0.006000 0.000000 -0.134988 0.006000 0.000000 -0.012000 0.006000 0.000000 -0.377999 0.009000 0.000000 -0.006000 -0.009000 0.000000 -0.006000 -0.006000 0.000000 -0.006000 -0.006000 0.000000 -0.006000 -0.006000 0.000000 -0.006000 -0.006000 0.000000 -0.006000 -0.006000 0.000000 -0.006000 -0.006000 0.000000 -0.006000 -0.006000 0.000000 -0.006000 -0.006000 0.000000 -0.006000 0.000000 0.000000 -0.006000 0.000000 0.000000 -0.006000 0.006000 0.000000 -0.006000 0.006000 0.000000 -0.006000 0.006000 0.000000 -0.006000 0.006000 0.000000 -0.006000 0.006000 0.000000 -0.006000 0.006000 0.000000 -0.150008 0.006000 0.000000 -0.012000 0.006000 0.000000 -0.255314 0.009000 0.000000 -0.006000 -0.009000 0.000000 -0.006000 -0.006000 0.000000 -0.006000 -0.006000 0.000000 -0.006000 -0.006000 0.000000 -0.006000 -0.006000 0.000000 -0.006000 -0.006000 0.000000 -0.006000 -0.006000 0.000000 -0.006000 -0.006000 0.000000 -0.006000 -0.006000 0.000000 -0.006000 0.000000 0.000000 -0.006000 0.000000 0.000000 -0.006000 0.006000 0.000000 -0.006000 0.006000 0.000000 -0.006000 0.006000 0.000000 -0.006000 0.006000 0.000000 -0.006000 0.006000 0.000000 -0.006000 0.006000 0.000000 -0.185980 0.006000 0.000000 -0.012000 0.006000 0.000000 -0.404880 0.009000 0.000000 -0.006000 -0.009000 0.000000 -0.006000 -0.006000 0.000000 -0.006000 -0.006000 0.000000 -0.006000 -0.006000 0.000000 -0.006000 -0.006000 0.000000 -0.006000 -0.006000 0.000000 -0.006000 -0.006000 0.000000 -0.006000 -0.006000 0.000000 -0.006000 -0.006000 0.000000 -0.006000 0.000000 0.000000 -0.006000 0.000000 0.000000 -0.006000 0.006000 0.000000 -0.006000 0.006000 0.000000 -0.006000 0.006000 0.000000 -0.006000 0.006000 0.000000 -0.006000 0.006000 0.000000 -0.006000 0.006000 0.000000 -0.165019 0.006000 0.000000 -0.012000 0.006000 0.000000 -0.354116 0.009000 0.000000 -0.006000 -0.009000 0.000000 -0.006000 -0.006000 0.000000 -0.006000 -0.006000 0.000000 -0.006000 -0.006000 0.000000 -0.006000 -0.006000 0.000000 -0.006000 -0.006000 0.000000 -0.006000 -0.006000 0.000000 -0.006000 -0.006000 0.000000 -0.006000 -0.006000 0.000000 -0.006000 0.000000 0.000000 -0.006000 0.000000 0.000000 -0.006000 0.006000 0.000000 -0.006000 0.006000 0.000000 -0.006000 0.006000 0.000000 -0.006000 0.006000 0.000000 -0.006000 0.006000 0.000000 -0.006000 0.006000 0.000000 -0.146979 0.006000 0.000000 -0.012000 0.006000 0.000000 -0.311878 0.009000 0.000000 -0.006000 -0.009000 0.000000 -0.006000 -0.006000 0.000000 -0.006000 -0.006000 0.000000 -0.003000 -0.006000 0.000000 -0.006000 -0.006000 0.000000 -0.006000 -0.006000 0.000000 -0.006000 -0.006000 0.000000 -0.006000 -0.006000 0.000000 -0.006000 -0.006000 0.000000 -0.006000 0.000000 0.000000 -0.006000 0.000000 0.000000 -0.006000 0.006000 0.000000 -0.006000 0.006000 0.000000 -0.006000 0.006000 0.000000 -0.006000 0.006000 0.000000 -0.006000 0.006000 0.000000 -0.006000 0.006000 0.000000 -0.147054 0.006000 0.000000 -0.012000 0.006000 0.000000 -0.278850 0.009000 0.000000 -0.006000 -0.009000 0.000000 -0.006000 -0.006000 0.000000 -0.006000 -0.006000 0.000000 -0.003000 -0.006000 0.000000 -0.006000 -0.006000 0.000000 -0.006000 -0.006000 0.000000 -0.006000 -0.006000 0.000000 -0.006000 -0.006000 0.000000 -0.006000 -0.006000 0.000000 -0.006000 0.000000 0.000000 -0.006000 0.000000 0.000000 -0.006000 0.006000 0.000000 -0.006000 0.006000 0.000000 -0.006000 0.006000 0.000000 -0.006000 0.006000 0.000000 -0.006000 0.006000 0.000000 -0.006000 0.006000 0.000000 -0.186009 0.006000 0.000000 -0.006000 0.006000 0.000000 -0.351490 0.009000 0.000000 -0.006000 -0.009000 0.000000 -0.006000 -0.006000 0.000000 -0.006000 -0.006000 0.000000 -0.006000 -0.006000 0.000000 -0.006000 -0.006000 0.000000 -0.006000 -0.006000 0.000000 -0.006000 -0.006000 0.000000 -0.006000 -0.006000 0.000000 -0.006000 -0.006000 0.000000 -0.006000 0.000000 0.000000 -0.006000 0.000000 0.000000 -0.006000 0.006000 0.000000 -0.006000 0.006000 0.000000 -0.006000 0.006000 0.000000 -0.006000 0.006000 0.000000 -0.006000 0.006000 0.000000 -0.006000 0.006000 0.000000 -0.152945 0.006000 0.000000 -0.006000 0.006000 0.000000 -0.311379 0.009000 0.000000 -0.006000 -0.009000 0.000000 -0.006000 -0.006000 0.000000 -0.006000 -0.006000 0.000000 -0.006000 -0.006000 0.000000 -0.006000 -0.006000 0.000000 -0.006000 -0.006000 0.000000 -0.006000 -0.006000 0.000000 -0.006000 -0.006000 0.000000 -0.006000 -0.006000 0.000000 -0.006000 0.000000 0.000000 -0.006000 0.000000 0.000000 -0.006000 0.006000 0.000000 -0.006000 0.006000 0.000000 -0.006000 0.006000 0.000000 -0.006000 0.006000 0.000000 -0.006000 0.006000 0.000000 -0.006000 0.006000 0.000000 -0.138000 0.006000 0.000000 -0.006000 0.006000 0.000000 -0.333005 0.009000 0.000000 -0.006000 -0.009000 0.000000 -0.006000 -0.006000 0.000000 -0.006000 -0.006000 0.000000 -0.006000 -0.006000 0.000000 -0.006000 -0.006000 0.000000 -0.006000 -0.006000 0.000000 -0.006000 -0.006000 0.000000 -0.006000 -0.006000 0.000000 -0.006000 -0.006000 0.000000 -0.006000 0.000000 0.000000 -0.006000 0.000000 0.000000 -0.006000 0.006000 0.000000 -0.006000 0.006000 0.000000 -0.006000 0.006000 0.000000 -0.006000 0.006000 0.000000 -0.006000 0.006000 0.000000 -0.006000 0.006000 0.000000 -0.183119 0.006000 0.000000 -0.006000 0.006000 0.000000 -0.405831 0.009000 0.000000 -0.006000 -0.009000 0.000000 -0.006000 -0.006000 0.000000 -0.006000 -0.006000 0.000000 -0.006000 -0.006000 0.000000 -0.006000 -0.006000 0.000000 -0.006000 -0.006000 0.000000 -0.006000 -0.006000 0.000000 -0.006000 -0.006000 0.000000 -0.006000 -0.006000 0.000000 -0.006000 0.000000 0.000000 -0.006000 0.000000 0.000000 -0.006000 0.006000 0.000000 -0.000000 0.006000 0.000000 -0.006000 0.006000 0.000000 -0.006000 0.006000 0.000000 -0.006000 0.006000 0.000000 -0.006000 0.006000 0.000000 -0.147027 0.006000 0.000000 0.000000 0.006000 0.000000 -0.444131 0.009000 0.000000 -0.006000 -0.009000 0.000000 -0.006000 -0.006000 0.000000 -0.006000 -0.006000 0.000000 -0.006000 -0.006000 0.000000 -0.006000 -0.006000 0.000000 -0.006000 -0.006000 0.000000 -0.006000 -0.006000 0.000000 -0.006000 -0.006000 0.000000 -0.006000 -0.006000 0.000000 -0.006000 0.000000 0.000000 -0.006000 0.000000 0.000000 -0.006000 0.006000 0.000000 -0.000000 0.006000 0.000000 -0.006000 0.006000 0.000000 -0.006000 0.006000 0.000000 -0.006000 0.006000 0.000000 -0.006000 0.006000 0.000000 -0.156072 0.006000 0.000000 0.000000 0.006000 0.000000 -0.419931 0.009000 0.000000 -0.006000 -0.009000 0.000000 -0.006000 -0.006000 0.000000 -0.006000 -0.006000 0.000000 -0.006000 -0.006000 0.000000 -0.006000 -0.006000 0.000000 -0.006000 -0.006000 0.000000 -0.006000 -0.006000 0.000000 -0.006000 -0.006000 0.000000 -0.006000 -0.006000 0.000000 -0.006000 0.000000 0.000000 -0.006000 0.000000 0.000000 -0.006000 0.006000 0.000000 -0.000000 0.006000 0.000000 -0.006000 0.006000 0.000000 -0.006000 0.006000 0.000000 -0.006000 0.006000 0.000000 -0.006000 0.006000 0.000000 -0.213025 0.006000 0.000000 -0.000000 0.006000 0.000000 -0.312091 0.009000 0.000000 -0.006000 -0.009000 0.000000 -0.006000 -0.006000 0.000000 -0.006000 -0.006000 0.000000 -0.006000 -0.006000 0.000000 -0.006000 -0.006000 0.000000 -0.006000 -0.006000 0.000000 -0.006000 -0.006000 0.000000 -0.006000 -0.006000 0.000000 -0.006000 -0.006000 0.000000 -0.006000 0.000000 0.000000 -0.006000 0.000000 0.000000 -0.006000 0.006000 0.000000 -0.000000 0.006000 0.000000 -0.006000 0.006000 0.000000 -0.006000 0.006000 0.000000 -0.006000 0.006000 0.000000 -0.006000 0.006000 0.000000 -0.210375 0.006000 0.000000 0.000000 0.006000 0.000000 -0.330161 0.008999 0.000000 -0.006000 -0.009000 0.000000 -0.006000 -0.006000 0.000000 -0.006000 -0.006000 0.000000 -0.006000 -0.006000 0.000000 -0.000000 -0.006000 0.000000 -0.006000 -0.006000 0.000000 -0.006000 -0.006000 0.000000 -0.006000 -0.006000 0.000000 -0.006000 -0.006000 0.000000 -0.006000 0.000000 0.000000 -0.006000 0.000000 0.000000 -0.000000 0.006000 0.000000 -0.000000 0.006000 0.000000 -0.006000 0.006000 0.000000 -0.006000 0.006000 0.000000 -0.006000 0.006000 0.000000 -0.006000 0.006000 0.000000 -0.107743 0.006002 0.000000 0.000000 0.006000 0.000000 -0.206328 0.009037 0.000000 -0.006000 -0.009000 0.000000 -0.006000 -0.006000 0.000000 -0.006000 -0.006000 0.000000 -0.006000 -0.006000 0.000000 0.000000 -0.006000 0.000000 -0.006000 -0.006000 0.000000 -0.006000 -0.006000 0.000000 -0.006000 -0.006000 0.000000 -0.006000 -0.006000 0.000000 -0.006000 0.000000 0.000000 -0.000000 0.000000 0.000000 0.000000 0.006000 0.000000 -0.000000 0.006000 0.000000 -0.006000 0.006000 0.000000 -0.006000 0.006000 0.000000 -0.006000 0.006000 0.000000 -0.006000 0.006000 0.000000 -0.138457 0.005656 0.000000 0.006000 0.006000 0.000000 -0.227697 0.007425 0.000000 -0.006000 -0.009000 0.000000 -0.006000 -0.006000 0.000000 -0.006000 -0.006000 0.000000 -0.006000 -0.005989 0.000000 -0.000000 -0.006000 0.000000 -0.006000 -0.006000 0.000000 -0.006000 -0.005989 0.000000 0.000000 -0.006005 0.000000 -0.006000 -0.006000 0.000000 -0.006000 -0.000000 0.000000 -0.000000 -0.000000 0.000000 0.000006 0.000001 0.000000 -0.000005 0.006055 0.000000 -0.006001 0.006000 0.000000 -0.006000 0.006000 0.000000 -0.006000 0.006000 0.000000 -0.005999 0.006000 0.000000 -0.130720 0.017328 0.000000 0.006048 0.018000 0.000000 -0.261599 0.038727 0.000000 -0.006000 -0.171001 0.000000 -0.006002 -0.168005 0.000000 -0.005996 -0.179940 0.000000 -0.000613 -0.185986 0.000000 0.000467 -0.095983 0.000000 0.001040 -0.077957 0.000000 -0.001003 -0.125955 0.000000 -0.001029 -0.005986 0.000000 0.001407 -0.143978 0.000000 -0.000579 -0.116819 0.000000 0.000457 -0.062896 0.000000 0.001036 -0.023492 0.000000 0.011154 -0.174058 0.000000 -0.006339 0.006013 0.000000 -0.005999 -0.173990 0.000000 -0.006004 -0.072013 0.000000 -0.003408 -0.090011 0.000000 -0.302945 -0.115095 0.000000 0.029703 -0.083570 0.000000 -0.488395 -0.044720 0.000000 -0.011469 -2.631044 0.000000 -0.023078 -2.700047 0.000000 -0.023027 -2.553124 0.000000 -0.006165 -2.568050 0.000000 -0.017584 -2.556123 0.000000 -0.016780 -2.592415 0.000000 0.027991 -2.637250 0.000000 -0.100918 -9.594564 0.000000 0.077221 -2.279834 0.000000 -0.247891 -9.353463 0.000000 0.199964 -1.935571 0.000000 0.235211 -8.956255 0.000000 -0.520348 -0.698841 0.000000 0.083787 -6.447301 0.000000 0.120073 -2.480544 0.000000 -0.352789 0.715380 0.000000 0.342912 -0.577454 0.000000 0.141018 -3.614546 0.000000 -2.279735 -1.734409 0.000000 3.623328 -1.915245 0.000000 -0.011573 -2.619051 0.000000 -0.011439 -2.589127 0.000000 -0.019435 -2.703114 0.000000 -0.002964 -2.550051 0.000000 -0.016200 -2.607257 0.000000 -0.009870 -2.628536 0.000000 0.026762 -2.594362 0.000000 -0.078687 -9.718570 0.000000 0.078778 -2.326493 0.000000 -0.186650 -9.642017 0.000000 0.151182 -2.103256 0.000000 0.253684 -9.598214 0.000000 -0.448817 -1.828971 0.000000 0.122865 -9.370175 0.000000 0.038578 -1.422608 0.000000 -0.735176 -9.022166 0.000000 0.812847 -0.845299 0.000000 0.716064 -5.698477 0.000000 -4.109780 -1.873393 0.000000 5.737477 -3.962169 0.000000 -0.011609 -2.583041 0.000000 -0.011762 -2.652016 0.000000 -0.013166 -2.607058 0.000000 -0.002638 -2.562099 0.000000 -0.017157 -2.646185 0.000000 0.004199 -2.538211 0.000000 0.019127 -2.581843 0.000000 -0.065620 -9.619062 0.000000 0.097141 -2.349410 0.000000 -0.193755 -9.617059 0.000000 0.133202 -2.170848 0.000000 0.274841 -9.476467 0.000000 -0.465244 -1.758305 0.000000 0.132625 -9.328397 0.000000 0.029654 -1.461274 0.000000 -0.673467 -8.906464 0.000000 0.678472 -0.501519 0.000000 0.764211 -4.419481 0.000000 -4.094990 -2.263412 0.000000 5.657900 -4.506316 0.000000 -0.011527 -2.607060 0.000000 -0.002093 -2.610069 0.000000 -0.008565 -2.679082 0.000000 0.000470 -2.619173 0.000000 -0.019369 -2.591998 0.000000 0.000341 -2.565367 0.000000 0.025692 -2.623046 0.000000 -0.078742 -9.787138 0.000000 0.088420 -2.347279 0.000000 -0.169153 -9.632297 0.000000 0.087919 -1.977457 0.000000 0.331555 -9.610750 0.000000 -0.349725 -1.734538 0.000000 0.148653 -9.441596 0.000000 0.053444 -1.458543 0.000000 -0.678599 -9.001574 0.000000 0.827944 -0.385485 0.000000 0.884116 -2.146002 0.000000 -3.869962 -4.371382 0.000000 5.927590 -3.629394 0.000000 -0.005929 -2.604075 0.000000 -0.008263 -2.619022 0.000000 -0.013199 -2.628108 0.000000 0.018347 -2.592036 0.000000 -0.007050 -2.559139 0.000000 -0.001386 -2.646410 0.000000 0.036435 -2.595108 0.000000 -0.085351 -9.675760 0.000000 0.089870 -2.356162 0.000000 -0.187704 -9.742124 0.000000 0.064769 -1.982251 0.000000 0.357253 -9.589916 0.000000 -0.425498 -1.785946 0.000000 0.146832 -9.454161 0.000000 0.019899 -1.518890 0.000000 -0.657727 -9.115055 0.000000 0.827685 -0.279619 0.000000 0.818290 -2.239404 0.000000 -3.822800 -4.395508