<VTKFile type="UnstructuredGrid" version="0.1" byte_order="LittleEndian">
  <UnstructuredGrid>
    <Piece NumberOfPoints="2000" NumberOfCells="0">
      <Points>
        <DataArray name="Position" type="Float32" NumberOfComponents="3" format="ascii">
-0.007126 -0.004279 0.000000 -0.007126 0.997148 0.000000 -0.007126 1.997148 0.000000 -0.007126 2.997148 0.000000 -0.009811 3.997149 0.000000 -0.009945 4.997149 0.000000 -0.009931 5.997149 0.000000 -0.009966 6.997149 0.000000 -0.013971 7.997150 0.000000 -0.009965 9.000000 0.000000 -0.007180 10.000001 0.000000 -0.021944 11.002850 0.000000 -0.007114 12.002851 0.000000 -0.007114 13.002851 0.000000 -0.019412 14.002851 0.000000 -0.007108 15.002851 0.000000 -0.007108 16.002852 0.000000 -0.054411 17.002852 0.000000 -0.007108 18.002852 0.000000 -0.085338 19.004279 0.000000 0.997145 -0.004279 0.000000 0.997145 0.997148 0.000000 0.993187 1.997148 0.000000 0.992923 2.997148 0.000000 0.992909 3.997149 0.000000 0.991487 4.997149 0.000000 0.991557 5.997149 0.000000 0.992905 6.997149 0.000000 0.986457 7.997149 0.000000 0.993156 9.000000 0.000000 0.992879 10.000001 0.000000 0.978628 11.002850 0.000000 0.995168 12.002851 0.000000 0.996468 13.002851 0.000000 0.980806 14.002851 0.000000 0.996820 15.002851 0.000000 0.996214 16.002852 0.000000 0.945842 17.002852 0.000000 0.992915 18.002852 0.000000 0.915063 19.004279 0.000000 1.997148 -0.004279 0.000000 1.997148 0.996999 0.000000 1.996609 1.997148 0.000000 1.992926 2.997141 0.000000 1.992944 3.997148 0.000000 1.993355 4.997148 0.000000 1.992378 5.997148 0.000000 1.992935 6.997149 0.000000 1.986531 7.997290 0.000000 1.993177 9.000000 0.000000 1.992883 10.000001 0.000000 1.978712 11.002851 0.000000 1.995190 12.002851 0.000000 1.996489 13.002851 0.000000 1.981163 14.002851 0.000000 1.996855 15.002851 0.000000 1.996240 16.002852 0.000000 1.946497 17.002852 0.000000 1.992920 18.002852 0.000000 1.916232 19.004281 0.000000 2.997148 -0.004279 0.000000 2.997148 0.996035 0.000000 2.996846 1.996487 0.000000 2.992928 2.997116 0.000000 2.992962 3.997143 0.000000 2.993366 4.997146 0.000000 2.992365 5.997176 0.000000 2.994301 6.997813 0.000000 2.986629 7.998260 0.000000 2.993381 9.000000 0.000000 2.992903 10.000001 0.000000 2.978749 11.002689 0.000000 2.995190 12.002852 0.000000 2.996490 13.002861 0.000000 2.981378 14.002864 0.000000 2.996969 15.002852 0.000000 2.996240 16.003086 0.000000 2.946496 17.002852 0.000000 2.992925 18.002852 0.000000 2.916554 19.004178 0.000000 3.997148 -0.005515 0.000000 3.997148 0.995209 0.000000 3.996853 1.995371 0.000000 3.992998 2.995457 0.000000 3.994219 3.996341 0.000000 3.994291 4.998865 0.000000 3.992457 5.998976 0.000000 3.994306 6.999100 0.000000 3.986708 7.999345 0.000000 3.994301 9.000007 0.000000 3.992904 10.000013 0.000000 3.978812 11.000880 0.000000 3.996157 12.002851 0.000000 3.996807 13.002851 0.000000 3.981553 14.002851 0.000000 3.996980 15.002852 0.000000 3.996680 16.002852 0.000000 3.946496 17.002853 0.000000 3.992941 18.003752 0.000000 3.916679 19.005555 0.000000 4.997149 -0.015592 0.000000 4.997149 0.988500 0.000000 4.997136 1.991424 0.000000 4.996409 2.994163 0.000000 4.995443 3.994234 0.000000 4.994304 4.994329 0.000000 4.992452 5.994345 0.000000 4.994306 6.994700 0.000000 4.986800 7.994721 0.000000 4.994303 8.997132 0.000000 4.992919 9.999228 0.000000 4.978900 10.999740 0.000000 4.996157 12.002851 0.000000 4.996807 13.002851 0.000000 4.981636 14.002851 0.000000 4.996984 15.002851 0.000000 4.996680 16.002852 0.000000 4.946576 17.002852 0.000000 4.992949 18.002852 0.000000 4.916818 19.004062 0.000000 5.997150 -0.007119 0.000000 5.997150 0.994336 0.000000 5.997151 1.995110 0.000000 5.997028 2.995456 0.000000 5.995601 3.997157 0.000000 5.994306 4.997972 0.000000 5.992430 5.998903 0.000000 5.995304 6.999205 0.000000 5.986934 8.000074 0.000000 5.994306 9.000146 0.000000 5.992919 10.000977 0.000000 5.978986 11.002141 0.000000 5.996165 12.002851 0.000000 5.996815 13.002851 0.000000 5.981674 14.002851 0.000000 5.996994 15.002852 0.000000 5.996691 16.002852 0.000000 5.946634 17.002853 0.000000 5.992970 18.003823 0.000000 5.916863 19.005386 0.000000 6.997150 -0.005564 0.000000 6.997150 0.995168 0.000000 6.997151 1.996024 0.000000 6.997149 2.996364 0.000000 6.996206 3.996575 0.000000 6.995236 4.997719 0.000000 6.992415 5.998280 0.000000 6.997139 6.999123 0.000000 6.987369 7.999239 0.000000 6.997139 8.999999 0.000000 6.995000 10.000001 0.000000 6.979265 11.002713 0.000000 6.996176 12.002851 0.000000 6.996826 13.002870 0.000000 6.981745 14.002879 0.000000 6.997002 15.002852 0.000000 6.996700 16.003021 0.000000 6.946641 17.002852 0.000000 6.992975 18.002852 0.000000 6.916871 19.004174 0.000000 7.997150 -0.004279 0.000000 7.997150 0.996368 0.000000 7.997151 1.997105 0.000000 7.997149 2.997148 0.000000 7.996864 3.997149 0.000000 7.996525 4.997149 0.000000 7.992404 5.997152 0.000000 7.997145 6.997177 0.000000 7.987452 7.997897 0.000000 7.997145 8.999999 0.000000 7.995008 10.000001 0.000000 7.979677 11.002850 0.000000 7.997137 12.002851 0.000000 7.997137 13.002851 0.000000 7.981729 14.002851 0.000000 7.997002 15.002851 0.000000 7.997134 16.002852 0.000000 7.946626 17.002852 0.000000 7.993005 18.002852 0.000000 7.916907 19.004282 0.000000 8.997150 -0.004279 0.000000 8.997150 0.997148 0.000000 8.997152 1.997148 0.000000 8.997150 2.997148 0.000000 8.996867 3.997148 0.000000 8.997138 4.997149 0.000000 8.992465 5.997149 0.000000 8.997145 6.997149 0.000000 8.987434 7.997112 0.000000 8.997146 9.000000 0.000000 8.995013 10.000001 0.000000 8.979643 11.002850 0.000000 8.997148 12.002851 0.000000 8.997146 13.002851 0.000000 8.981732 14.002851 0.000000 8.997134 15.002851 0.000000 8.997146 16.002852 0.000000 8.946621 17.002852 0.000000 8.993024 18.002852 0.000000 8.916803 19.004279 0.000000 9.997151 -0.004279 0.000000 9.997151 0.997148 0.000000 9.997152 1.997148 0.000000 9.997150 2.997148 0.000000 9.996867 3.997149 0.000000 9.997146 4.997149 0.000000 9.992499 5.997149 0.000000 9.997146 6.997149 0.000000 9.987475 7.997150 0.000000 9.997146 9.000000 0.000000 9.995015 10.000001 0.000000 9.979708 11.002850 0.000000 9.997148 12.002851 0.000000 9.997148 13.002851 0.000000 9.981735 14.002851 0.000000 9.997146 15.002851 0.000000 9.997148 16.002852 0.000000 9.946587 17.002852 0.000000 9.993568 18.002852 0.000000 9.916812 19.004279 0.000000 10.997151 -0.004279 0.000000 10.997151 0.997148 0.000000 10.997152 1.997148 0.000000 10.997151 2.997148 0.000000 10.996867 3.997149 0.000000 10.997154 4.997149 0.000000 10.992516 5.997149 0.000000 10.997152 6.997149 0.000000 10.987547 7.997150 0.000000 10.997152 9.000000 0.000000 10.995015 10.000001 0.000000 10.979907 11.002850 0.000000 10.997149 12.002851 0.000000 10.997149 13.002851 0.000000 10.981743 14.002851 0.000000 10.997149 15.002851 0.000000 10.997149 16.002852 0.000000 10.946586 17.002852 0.000000 10.993573 18.002852 0.000000 10.916743 19.004279 0.000000 11.997151 -0.004279 0.000000 11.997151 0.997148 0.000000 11.997152 1.997148 0.000000 11.997151 2.997148 0.000000 11.996868 3.997149 0.000000 11.997154 4.997149 0.000000 11.992490 5.997149 0.000000 11.997152 6.997149 0.000000 11.987551 7.997150 0.000000 11.997152 9.000000 0.000000 11.995017 10.000001 0.000000 11.979895 11.002850 0.000000 11.997149 12.002851 0.000000 11.997149 13.002851 0.000000 11.981739 14.002851 0.000000 11.997149 15.002851 0.000000 11.997149 16.002852 0.000000 11.946566 17.002852 0.000000 11.993576 18.002852 0.000000 11.916739 19.004279 0.000000 12.997152 -0.004279 0.000000 12.997152 0.997148 0.000000 12.997153 1.997148 0.000000 12.997151 2.997148 0.000000 12.996868 3.997149 0.000000 12.997154 4.997149 0.000000 12.992506 5.997149 0.000000 12.997153 6.997149 0.000000 12.987579 7.997150 0.000000 12.997153 9.000000 0.000000 12.997135 10.000001 0.000000 12.980093 11.002850 0.000000 12.997149 12.002851 0.000000 12.997149 13.002851 0.000000 12.981741 14.002851 0.000000 12.997149 15.002851 0.000000 12.997149 16.002852 0.000000 12.946584 17.002852 0.000000 12.993572 18.002852 0.000000 12.916712 19.004279 0.000000 13.997152 -0.004279 0.000000 13.997152 0.997148 0.000000 13.997153 1.997148 0.000000 13.997152 2.997148 0.000000 13.996868 3.997149 0.000000 13.997154 4.997149 0.000000 13.992140 5.997149 0.000000 13.997153 6.997149 0.000000 13.987576 7.997150 0.000000 13.997153 9.000000 0.000000 13.997145 10.000001 0.000000 13.980168 11.002850 0.000000 13.997149 12.002851 0.000000 13.997149 13.002851 0.000000 13.981740 14.002851 0.000000 13.997149 15.002851 0.000000 13.997149 16.002852 0.000000 13.946584 17.002852 0.000000 13.993570 18.002852 0.000000 13.916727 19.004279 0.000000 14.997152 -0.004279 0.000000 14.997152 0.997148 0.000000 14.997153 1.997148 0.000000 14.997152 2.997148 0.000000 14.996869 3.997149 0.000000 14.997155 4.997149 0.000000 14.992108 5.997149 0.000000 14.997153 6.997149 0.000000 14.987573 7.997150 0.000000 14.997153 9.000000 0.000000 14.997145 10.000001 0.000000 14.980229 11.002850 0.000000 14.997153 12.002851 0.000000 14.997153 13.002851 0.000000 14.981792 14.002851 0.000000 14.997150 15.002851 0.000000 14.997150 16.002852 0.000000 14.946684 17.002852 0.000000 14.993571 18.002852 0.000000 14.916758 19.004279 0.000000 15.997152 -0.004279 0.000000 15.997152 0.997148 0.000000 15.997154 1.997148 0.000000 15.997152 2.997148 0.000000 15.996869 3.997149 0.000000 15.997155 4.997149 0.000000 15.992100 5.997149 0.000000 15.997154 6.997149 0.000000 15.987521 7.997150 0.000000 15.997154 9.000000 0.000000 15.997148 10.000001 0.000000 15.980247 11.002850 0.000000 15.997155 12.002851 0.000000 15.997155 13.002851 0.000000 15.981791 14.002851 0.000000 15.997150 15.002851 0.000000 15.997150 16.002852 0.000000 15.946735 17.002852 0.000000 15.993577 18.002852 0.000000 15.916780 19.004279 0.000000 16.997153 -0.004279 0.000000 16.997153 0.997148 0.000000 16.997154 1.997148 0.000000 16.997152 2.997148 0.000000 16.996869 3.997149 0.000000 16.997155 4.997149 0.000000 16.991978 5.997149 0.000000 16.997154 6.997149 0.000000 16.987514 7.997150
[...]
      <PointData Vectors="vector">
        <DataArray type="Float32" Name="Velocity" NumberOfComponents="3" format="ascii">
-0.015000 -0.009000 0.000000 -0.015000 -0.006000 0.000000 -0.015000 -0.006000 0.000000 -0.015000 -0.006000 0.000000 -0.021000 -0.006000 0.000000 -0.021000 -0.006000 0.000000 -0.021000 -0.006000 0.000000 -0.021000 -0.006000 0.000000 -0.381004 -0.006000 0.000000 -0.021000 0.000000 0.000000 -0.021000 0.000000 0.000000 -0.405010 0.006000 0.000000 -0.015000 0.006000 0.000000 -0.015000 0.006000 0.000000 -0.291010 0.006000 0.000000 -0.015000 0.006000 0.000000 -0.015000 0.006000 0.000000 -0.591013 0.006000 0.000000 -0.015000 0.006000 0.000000 -0.813012 0.009000 0.000000 -0.006000 -0.009000 0.000000 -0.006000 -0.006000 0.000000 -0.018000 -0.006000 0.000000 -0.018000 -0.006000 0.000000 -0.018000 -0.006000 0.000000 -0.018000 -0.006000 0.000000 -0.018000 -0.006000 0.000000 -0.018000 -0.006000 0.000000 -0.305998 -0.006023 0.000000 -0.018000 0.000000 0.000000 -0.018000 0.000000 0.000000 -0.389997 0.006000 0.000000 -0.018000 0.006000 0.000000 -0.018000 0.006000 0.000000 -0.348011 0.006000 0.000000 -0.018000 0.006000 0.000000 -0.018000 0.006000 0.000000 -0.690002 0.006000 0.000000 -0.018000 0.006000 0.000000 -0.882030 0.008999 0.000000 -0.006000 -0.009000 0.000000 -0.005999 -0.012000 0.000000 -0.017979 -0.005995 0.000000 -0.018022 -0.006000 0.000000 -0.018002 -0.006000 0.000000 -0.017997 -0.006000 0.000000 -0.273012 -0.006003 0.000000 -0.018000 -0.006000 0.000000 -0.324010 -0.000896 0.000000 -0.018000 0.000000 0.000000 -0.018000 0.000000 0.000000 -0.408033 0.006028 0.000000 -0.018000 0.006000 0.000000 -0.018000 0.006000 0.000000 -0.287985 0.005997 0.000000 -0.018000 0.006000 0.000000 -0.018000 0.006000 0.000000 -0.711006 0.006000 0.000000 -0.024000 0.006000 0.000000 -0.858025 0.009064 0.000000 -0.006000 -0.009000 0.000000 -0.006000 -0.012000 0.000000 -0.011971 -0.011985 0.000000 -0.018030 -0.012000 0.000000 -0.018006 -0.005997 0.000000 -0.017995 -0.006009 0.000000 -0.351031 -0.001056 0.000000 -0.011998 -0.000007 0.000000 -0.288001 -0.000255 0.000000 -0.018000 -0.000000 0.000000 -0.018000 -0.000000 0.000000 -0.396003 0.002566 0.000000 -0.017990 0.006000 0.000000 -0.017966 0.006000 0.000000 -0.408062 0.006009 0.000000 -0.011967 0.006000 0.000000 -0.018003 0.012000 0.000000 -0.654012 0.005998 0.000000 -0.018000 0.005995 0.000000 -0.750016 0.007136 0.000000 -0.006000 -0.015000 0.000000 -0.006000 -0.012000 0.000000 -0.011985 -0.011912 0.000000 -0.018016 -0.011929 0.000000 -0.011986 -0.005975 0.000000 -0.012013 0.000042 0.000000 -0.149965 0.004414 0.000000 -0.011993 0.000027 0.000000 -0.306050 0.007233 0.000000 -0.012000 0.000032 0.000000 -0.018000 0.000039 0.000000 -0.407997 -0.000691 0.000000 -0.012000 0.006000 0.000000 -0.012000 0.006000 0.000000 -0.377999 0.005995 0.000000 -0.012000 0.006000 0.000000 -0.012000 0.006000 0.000000 -0.621012 0.006005 0.000000 -0.018001 0.006011 0.000000 -0.726069 0.019003 0.000000 -0.006000 -0.033000 0.000000 -0.006000 -0.030000 0.000000 -0.006000 -0.018105 0.000000 -0.011988 -0.018082 0.000000 -0.011991 -0.018035 0.000000 -0.012033 -0.012065 0.000000 -0.153004 -0.007275 0.000000 -0.012000 0.011945 0.000000 -0.264051 -0.026511 0.000000 -0.012000 -0.006065 0.000000 -0.012000 -0.000082 0.000000 -0.372206 -0.006294 0.000000 -0.012000 0.006000 0.000000 -0.012000 0.006000 0.000000 -0.324024 0.005999 0.000000 -0.012000 0.006000 0.000000 -0.012000 0.006000 0.000000 -0.659986 0.005994 0.000000 -0.018000 0.005989 0.000000 -0.786115 0.004843 0.000000 -0.006000 -0.015000 0.000000 -0.006000 -0.012000 0.000000 -0.006000 -0.011922 0.000000 -0.012000 -0.011919 0.000000 -0.011988 -0.005958 0.000000 -0.012012 -0.005958 0.000000 -0.114016 0.004511 0.000000 -0.017990 0.000051 0.000000 -0.330133 0.004152 0.000000 -0.011987 0.006033 0.000000 -0.018003 0.000043 0.000000 -0.312646 0.008404 0.000000 -0.011999 0.006000 0.000000 -0.012000 0.006000 0.000000 -0.311979 0.005986 0.000000 -0.012000 0.006000 0.000000 -0.012000 0.006000 0.000000 -0.654013 0.006007 0.000000 -0.017992 0.006012 0.000000 -0.887984 0.019206 0.000000 -0.006000 -0.015000 0.000000 -0.006000 -0.012000 0.000000 -0.006000 -0.011997 0.000000 -0.006000 -0.005998 0.000000 -0.011981 -0.012000 0.000000 -0.006018 -0.000009 0.000000 -0.198054 0.000655 0.000000 -0.006000 -0.000005 0.000000 -0.269864 0.001327 0.000000 -0.006000 -0.000000 0.000000 -0.012000 -0.000000 0.000000 -0.341216 0.001970 0.000000 -0.011973 0.006000 0.000000 -0.011959 0.006000 0.000000 -0.315086 0.006031 0.000000 -0.011955 0.006000 0.000000 -0.012002 0.012000 0.000000 -0.633010 0.005996 0.000000 -0.018000 0.005994 0.000000 -0.773971 0.006627 0.000000 -0.006000 -0.009000 0.000000 -0.006000 -0.012000 0.000000 -0.006000 -0.011980 0.000000 -0.006000 -0.005991 0.000000 -0.065997 -0.006000 0.000000 -0.017986 -0.006000 0.000000 -0.183105 -0.007247 0.000000 -0.005968 -0.000013 0.000000 -0.297367 -0.001344 0.000000 -0.006000 0.000000 0.000000 -0.012000 0.000000 0.000000 -0.417181 0.006017 0.000000 -0.006000 0.006000 0.000000 -0.006000 0.006000 0.000000 -0.363001 0.005983 0.000000 -0.012000 0.006000 0.000000 -0.006000 0.006000 0.000000 -0.654031 0.006000 0.000000 -0.018000 0.006000 0.000000 -0.921134 0.009123 0.000000 -0.006000 -0.009000 0.000000 -0.006000 -0.006000 0.000000 -0.006000 -0.006000 0.000000 -0.006000 -0.006000 0.000000 -0.066000 -0.006000 0.000000 -0.006000 -0.006000 0.000000 -0.275931 -0.006000 0.000000 -0.006000 -0.006000 0.000000 -0.314596 -0.007711 0.000000 -0.006000 0.000000 0.000000 -0.012000 0.000000 0.000000 -0.381201 0.006000 0.000000 -0.006000 0.006000 0.000000 -0.006000 0.006000 0.000000 -0.336010 0.006000 0.000000 -0.006000 0.006000 0.000000 -0.006000 0.006000 0.000000 -0.593996 0.006000 0.000000 -0.012000 0.006000 0.000000 -0.765070 0.008997 0.000000 -0.006000 -0.009000 0.000000 -0.006000 -0.006000 0.000000 -0.006000 -0.006000 0.000000 -0.006000 -0.006000 0.000000 -0.066000 -0.006000 0.000000 -0.006000 -0.006000 0.000000 -0.173980 -0.006000 0.000000 -0.006000 -0.006000 0.000000 -0.252000 -0.005986 0.000000 -0.006000 -0.000000 0.000000 -0.012000 0.000000 0.000000 -0.311743 0.006000 0.000000 -0.006000 0.006000 0.000000 -0.006000 0.006000 0.000000 -0.390006 0.006000 0.000000 -0.006000 0.006000 0.000000 -0.006000 0.006000 0.000000 -0.666010 0.006000 0.000000 -0.204000 0.006000 0.000000 -0.860808 0.009000 0.000000 -0.006000 -0.009000 0.000000 -0.006000 -0.006000 0.000000 -0.006000 -0.006000 0.000000 -0.006000 -0.006000 0.000000 -0.066000 -0.006000 0.000000 -0.006000 -0.006000 0.000000 -0.183068 -0.006000 0.000000 -0.006000 -0.006000 0.000000 -0.282214 -0.006000 0.000000 -0.006000 0.000000 0.000000 -0.012000 0.000000 0.000000 -0.326981 0.006000 0.000000 -0.006000 0.006000 0.000000 -0.006000 0.006000 0.000000 -0.374987 0.006000 0.000000 -0.006000 0.006000 0.000000 -0.006000 0.006000 0.000000 -0.708032 0.006000 0.000000 -0.234001 0.006000 0.000000 -0.888122 0.009000 0.000000 -0.006000 -0.009000 0.000000 -0.006000 -0.006000 0.000000 -0.006000 -0.006000 0.000000 -0.006000 -0.006000 0.000000 -0.066000 -0.006000 0.000000 -0.006000 -0.006000 0.000000 -0.254976 -0.006000 0.000000 -0.006000 -0.006000 0.000000 -0.311824 -0.006000 0.000000 -0.006000 0.000000 0.000000 -0.012000 0.000000 0.000000 -0.375515 0.006000 0.000000 -0.006000 0.006000 0.000000 -0.006000 0.006000 0.000000 -0.381012 0.006000 0.000000 -0.006000 0.006000 0.000000 -0.006000 0.006000 0.000000 -0.741017 0.006000 0.000000 -0.231000 0.006000 0.000000 -0.876068 0.009000 0.000000 -0.006000 -0.009000 0.000000 -0.006000 -0.006000 0.000000 -0.006000 -0.006000 0.000000 -0.006000 -0.006000 0.000000 -0.066000 -0.006000 0.000000 -0.006000 -0.006000 0.000000 -0.165206 -0.006000 0.000000 -0.006000 -0.006000 0.000000 -0.201091 -0.006000 0.000000 -0.006000 0.000000 0.000000 -0.006000 0.000000 0.000000 -0.359648 0.006000 0.000000 -0.006000 0.006000 0.000000 -0.006000 0.006000 0.000000 -0.363014 0.006000 0.000000 -0.006000 0.006000 0.000000 -0.006000 0.006000 0.000000 -0.693039 0.006000 0.000000 -0.252002 0.006000 0.000000 -0.741508 0.009000 0.000000 -0.006000 -0.009000 0.000000 -0.006000 -0.006000 0.000000 -0.006000 -0.006000 0.000000 -0.006000 -0.006000 0.000000 -0.066000 -0.006000 0.000000 -0.006000 -0.006000 0.000000 -0.173762 -0.006000 0.000000 -0.006000 -0.006000 0.000000 -0.293992 -0.006000 0.000000 -0.006000 0.000000 0.000000 -0.006000 0.000000 0.000000 -0.353701 0.006000 0.000000 -0.006000 0.006000 0.000000 -0.006000 0.006000 0.000000 -0.386970 0.006000 0.000000 -0.006000 0.006000 0.000000 -0.006000 0.006000 0.000000 -0.608960 0.006000 0.000000 -0.207002 0.006000 0.000000 -0.815864 0.009000 0.000000 -0.006000 -0.009000 0.000000 -0.006000 -0.006000 0.000000 -0.006000 -0.006000 0.000000 -0.006000 -0.006000 0.000000 -0.066000 -0.006000 0.000000 -0.006000 -0.006000 0.000000 -0.173994 -0.006000 0.000000 -0.006000 -0.006000 0.000000 -0.245943 -0.006000 0.000000 -0.006000 0.000000 0.000000 -0.006000 0.000000 0.000000 -0.402003 0.006000 0.000000 -0.006000 0.006000 0.000000 -0.006000 0.006000 0.000000 -0.357006 0.006000 0.000000 -0.006000 0.006000 0.000000 -0.006000 0.006000 0.000000 -0.690051 0.006000 0.000000 -0.234029 0.006000 0.000000 -0.912178 0.009000 0.000000 -0.006000 -0.009000 0.000000 -0.006000 -0.006000 0.000000 -0.006000 -0.006000 0.000000 -0.006000 -0.006000 0.000000 -0.069000 -0.006000 0.000000 -0.006000 -0.006000 0.000000 -0.180042 -0.006000 0.000000 -0.006000 -0.006000 0.000000 -0.288001 -0.006000 0.000000 -0.006000 0.000000 0.000000 -0.006000 0.000000 0.000000 -0.387594 0.006000 0.000000 -0.006000 0.006000 0.000000 -0.006000 0.006000 0.000000 -0.366125 0.006000 0.000000 -0.006000 0.006000 0.000000 -0.006000 0.006000 0.000000 -0.615053 0.006000 0.000000 -0.212992 0.006000 0.000000 -0.893821 0.009000 0.000000 -0.006000 -0.009000 0.000000 -0.006000 -0.006000 0.000000 -0.006000 -0.006000 0.000000 -0.006000 -0.006000 0.000000 -0.069000 -0.006000 0.000000 -0.006000 -0.006000 0.000000 -0.191948 -0.006000 0.000000 -0.006000 -0.006000 0.000000 -0.231169 -0.006000 0.000000 -0.006000 0.000000 0.000000 -0.006000 0.000000 0.000000 -0.488804 0.006000 0.000000 -0.006000 0.006000 0.000000 -0.006000 0.006000 0.000000 -0.371948 0.006000 0.000000 -0.006000 0.006000 0.000000 -0.006000 0.006000 0.000000 -0.666177 0.006000 0.000000 -0.211624 0.006000 0.000000 -0.896953 0.009000 0.000000 -0.006000 -0.009000 0.000000 -0.006000 -0.006000 0.000000 -0.006000 -0.006000 0.000000 -0.006000 -0.006000 0.000000 -0.066000 -0.006000 0.000000 -0.006000 -0.006000 0.000000 -0.192044 -0.006000 0.000000 -0.006000 -0.006000 0.000000 -0.375137 -0.006000 0.000000 -0.006000 0.000000 0.000000 -0.006000 0.000000 0.000000 -0.372244 0.006000 0.000000 -0.006000 0.006000 0.000000 -0.006000 0.006000 0.000000 -0.357037 0.006000 0.000000 -0.006000 0.006000 0.000000 -0.006000 0.006000 0.000000 -0.627037 0.006000 0.000000 -0.221522 0.006000 0.000000 -0.816567 0.009000 0.000000 -0.006000 -0.009000 0.000000 -0.006000 -0.006000 0.000000 -0.006000 -0.006000 0.000000 -0.006000 -0.006000 0.000000 -0.066000 -0.006000 0.000000 -0.006000 -0.006000 0.000000 -0.197968 -0.006000 0.000000 -0.006000 -0.006000 0.000000 -0.191944 -0.006000 0.000000 -0.006000 0.000000 0.000000 -0.006000 0.000000 0.000000 -0.377742 0.006000 0.000000 -0.006000 0.006000 0.000000 -0.006000 0.006000 0.000000 -0.339030 0.006000 0.000000 -0.006000 0.006000 0.000000 -0.006000 0.006000 0.000000 -0.659620 0.006000 0.000000 -0.295837 0.006000 0.000000 -0.799856 0.009000 0.000000 -0.006000 -0.009000 0.000000 -0.006000 -0.006000 0.000000 -0.006000 -0.006000 0.000000 -0.006000 -0.006000 0.000000 -0.069000 -0.006000 0.000000 -0.006000 -0.006000 0.000000 -0.198026 -0.006000 0.000000 -0.006000 -0.006000 0.000000 -0.198451 -0.006000 0.000000 -0.006000 0.000000 0.000000 -0.006000 0.000000 0.000000 -0.317875 0.006000 0.000000 -0.006000 0.006000 0.000000 -0.006000 0.006000 0.000000 -0.291026 0.006000 0.000000 -0.006000 0.006000 0.000000 -0.006000 0.006000 0.000000 -0.684002 0.006000 0.000000 -0.357001 0.006000 0.000000 -0.756000 0.009000 0.000000 -0.006000 -0.009000 0.000000 -0.006000 -0.006000 0.000000 -0.006000 -0.006000 0.000000 -0.006000 -0.006000 0.000000 -0.072000 -0.006000 0.000000 -0.006000 -0.006000 0.000000 -0.210019 -0.006000 0.000000 -0.006000 -0.006000 0.000000 -0.251274 -0.006000 0.000000 -0.006000 0.000000 0.000000 -0.006000 0.000000 0.000000 -0.412094 0.006000 0.000000 -0.006000 0.006000 0.000000 -0.000000 0.006000 0.000000 -0.299955 0.006000 0.000000 -0.006000 0.006000 0.000000 -0.000000 0.006000 0.000000 -0.633712 0.006000 0.000000 -0.330679 0.006000 0.000000 -0.793965 0.009000 0.000000 -0.006000 -0.009000 0.000000 -0.006000 -0.006000 0.000000 -0.006000 -0.006000 0.000000 -0.006000 -0.006000 0.000000 -0.072000 -0.006000 0.000000 -0.006000 -0.006000 0.000000 -0.215961 -0.006000 0.000000 -0.006000 -0.006000 0.000000 -0.258199 -0.006000 0.000000 -0.006000 0.000000 0.000000 -0.006000 0.000000 0.000000 -0.347526 0.006000 0.000000 -0.000000 0.006000 0.000000 -0.000000 0.006000 0.000000 -0.363086 0.006000 0.000000 0.000000 0.006000 0.000000 0.000000 0.006000 0.000000 -0.630131 0.006000 0.000000 -0.279104 0.006000 0.000000 -0.789621 0.009000 0.000000 -0.006000 -0.009000 0.000000 -0.006000 -0.006000 0.000000 -0.006000 -0.006000 0.000000 -0.006000 -0.006000 0.000000 -0.078004 -0.006000 0.000000 -0.006000 -0.006000 0.000000 -0.221996 -0.006000 0.000000 -0.006000 -0.006000 0.000000 -0.270016 -0.006000 0.000000 -0.006000 0.000000 0.000000 -0.006000 0.000000 0.000000 -0.432161 0.006000 0.000000 -0.000000 0.006000 0.000000 -0.000000 0.006000 0.000000 -0.368971 0.006000 0.000000 0.000000 0.006000 0.000000 0.000000 0.006000 0.000000 -0.663156 0.006000 0.000000 -0.299223 0.006000 0.000000 -0.720551 0.008999 0.000000 -0.006000 -0.009000 0.000000 -0.006000 -0.006000 0.000000 -0.006000 -0.006000 0.000000 -0.006000 -0.006000 0.000000 -0.065998 -0.006000 0.000000 -0.006000 -0.006000 0.000000 -0.222032 -0.006000 0.000000 -0.006000 -0.006000 0.000000 -0.275941 -0.006001 0.000000 -0.006000 0.000000 0.000000 -0.006000 0.000000 0.000000 -0.494967 0.006006 0.000000 -0.000000 0.006000 0.000000 -0.000000 0.006000 0.000000 -0.372230 0.006000 0.000000 -0.000000 0.006000 0.000000 0.000000 0.006000 0.000000 -0.633453 0.006006 0.000000 -0.300513 0.006000 0.000000 -0.819895 0.009046 0.000000 -0.006000 -0.009000 0.000000 -0.006000 -0.006000 0.000000 -0.006000 -0.006000 0.000000 -0.006000 -0.006000 0.000000 -0.067070 -0.006000 0.000000 -0.006000 -0.006000 0.000000 -0.198094 -0.006000 0.000000 -0.006000 -0.006000 0.000000 -0.293947 -0.005958 0.000000 -0.006000 0.000000 0.000000 -0.006000 0.000000 0.000000 -0.380066 0.005773 0.000000 -0.000000 0.006000 0.000000 -0.000000 0.006000 0.000000 -0.330016 0.006000 0.000000 0.000000 0.006000 0.000000 -0.000000 0.006000 0.000000 -0.655658 0.005863 0.000000 -0.312556 0.005992 0.000000 -0.850337 0.007914 0.000000 -0.006000 -0.009000 0.000000 -0.006000 -0.006000 0.000000 -0.000000 -0.006000 0.000000 -0.006000 -0.006000 0.000000 -0.179872 -0.005998 0.000000 -0.006000 -0.006000 0.000000 -0.234167 -0.006044 0.000000 -0.006000 -0.006000 0.000000 -0.270124 -0.007001 0.000000 -0.006000 0.000000 0.000000 -0.006000 0.000000 0.000000 -0.290261 0.009417 0.000000 -0.000000 0.006000 0.000000 -0.000000 0.006000 0.000000 -0.390283 0.006231 0.000000 0.006000 0.005997 0.000000 -0.000000 0.006000 0.000000 -0.657195 0.009238 0.000000 -0.345606 0.006807 0.000000 -0.809507 0.024262 0.000000 -0.006000 -0.009000 0.000000 -0.006000 -0.012000 0.000000 0.000001 -0.011999 0.000000 -0.000024 -0.012000 0.000000 -0.461520 -0.006265 0.000000 0.000004 -0.006000 0.000000 -0.240947 -0.003001 0.000000 -0.005991 -0.000000 0.000000 -0.302434 -0.010172 0.000000 -0.006000 0.000000 0.000000 -0.000000 0.000000 0.000000 -0.256835 -0.011339 0.000000 0.000004 -0.000000 0.000000 0.006022 0.000001 0.000000 -0.360057 -0.004777 0.000000 0.006021 -0.006012 0.000000 0.000901 0.012001 0.000000 -0.901688 -0.057208 0.000000 -0.403073 -0.027713 0.000000 -1.124661 -0.089234 0.000000 -0.006000 -0.009000 0.000000 -0.006000 -0.012000 0.000000 0.005997 -0.012001 0.000000 -0.000014 -0.011989 0.000000 -0.383566 0.033608 0.000000 0.000031 0.036000 0.000000 -0.212528 0.068901 0.000000 -0.005500 0.084006 0.000000 -0.363090 0.062275 0.000000 -0.005150 0.066001 0.000000 0.000181 0.090000 0.000000 -0.340150 0.108744 0.000000 0.003301 0.090020 0.000000 0.005932 0.083999 0.000000 -0.366737 0.097909 0.000000 0.007560 0.120006 0.000000 0.012034 0.090018 0.000000 -1.967515 0.577102 0.000000 -0.647569 0.566035 0.000000 0.040983 0.046064 0.000000 -0.006000 -0.639009 0.000000 -0.006004 -0.594031 0.000000 -0.006643 -0.737967 0.000000 -0.038699 -0.707143 0.000000 -0.356863 -0.681376 0.000000 0.017246 -0.656923 0.000000 -0.521508 -0.571772 0.000000 0.048806 -0.830500 0.000000 -0.661071 -0.787733 0.000000 0.022706 -1.110425 0.000000 0.084397 -0.988714 0.000000 -0.550158 -1.155137 0.000000 0.081720 -0.984955 0.000000 0.023660 -0.996835 0.000000 -0.384513 -0.950132 0.000000 -0.008511 -1.314935 0.000000 0.781847 -0.977532 0.000000 0.572169 -1.738083 0.000000 -1.262147 -1.785229 0.000000 2.513862 1.351019 0.000000 -0.012075 -6.882110 0.000000 -0.017455 -6.867453 0.000000 -0.107712 -8.965741 0.000000 0.121326 -4.712610 0.000000 -0.075739 -8.687883 0.000000 0.303442 -2.512106 0.000000 1.339545 -4.901995 0.000000 -1.807123 -4.590232 0.000000 2.248509 -1.203562 0.000000 -1.816893 -6.814107 0.000000 1.913696 0.281393 0.000000 0.800672 0.028648 0.000000 -0.547521 1.454801 0.000000 0.884373 -1.163795 0.000000 0.251701 -0.026306 0.000000 -0.278791 -0.606769 0.000000 1.869982 3.103369 0.000000 0.131806 1.461264 0.000000 0.963173 3.127114 0.000000 7.045186 -2.237465 0.000000 -0.010850 -7.062183 0.000000 0.001302 -6.982682 0.000000 -0.139170 -9.719824 0.000000 0.153507 -5.487128 0.000000 -0.154906 -9.456467 0.000000 0.609370 -4.211491 0.000000 1.632373 -8.081060 0.000000 -3.095414 -3.616344 0.000000 3.901212 -8.461574 0.000000 -3.385903 -3.269929 0.000000 0.329387 -6.634481 0.000000 3.956095 -4.381748 0.000000 -2.359450 -2.664091 0.000000 1.869759 -4.082858 0.000000 1.052361 -4.750859 0.000000 -2.209952 -2.245476 0.000000 2.646956 -3.228639 0.000000 -0.916716 0.064129 0.000000 -2.066105 2.535599 0.000000 10.828853 -3.432201 0.000000 -0.010956 -6.864090 0.000000 0.004814 -6.935810 0.000000 -0.114915 -9.740747 0.000000 0.184517 -5.529290 0.000000 -0.149640 -9.190794 0.000000 -0.047825 -4.027103 0.000000 1.677148 -7.857310 0.000000 -3.292788 -2.638555 0.000000 3.638796 -7.985131 0.000000 -4.120481 -2.629420 0.000000 0.841211 -5.228834 0.000000 4.035138 -3.898052 0.000000 -3.379047 -1.279749 0.000000 1.882577 -3.376771 0.000000 1.168033 -4.414452 0.000000 -4.702703 -3.963981 0.000000 1.453171 -4.778586 0.000000 -1.498337 -11.821603 0.000000 1.367994 -12.942275 0.000000 3.274741 -1.503109 0.000000 -0.007255 -7.140269 0.000000 -0.009158 -7.029693 0.000000 -0.108397 -9.567677 0.000000 0.172204 -5.165335 0.000000 -0.099354 -9.490084 0.000000 -0.418521 -4.086935 0.000000 1.847132 -8.037400 0.000000 -3.250216 -2.697763 0.000000 3.847543 -8.048143 0.000000 -4.048918 -2.740560 0.000000 1.531143 -5.110717 0.000000 3.898384 -3.782498 0.000000 -3.441747 -1.880655 0.000000 2.334330 -8.536855 0.000000 0.263102 -2.129407 0.000000 -3.646829 -4.817202 0.000000 2.052803 -4.526130 0.000000 0.076233 -10.081508 0.000000 9.121606 -9.772127 0.000000 12.425407 -4.871168 0.000000 -0.004543 -6.954172 0.000000 0.005112 -7.031341 0.000000 -0.090535 -9.728483 0.000000 0.238993 -5.462470 0.000000 -0.149903 -9.174532 0.000000 -0.503706 -4.027438 0.000000 2.062667 -8.023384 0.000000 -3.324939 -2.973748 0.000000 3.626890 -8.170066 0.000000 -3.991065 -2.710553 0.000000 0.315244 -5.422264 0.000000 4.759596 -3.844910 0.000000 -3.950583 -1.842021 0.000000 2.401391 -8.627287 0.000000 0.383929 -1.964232 0.000000 -3.800357 -4.752401 0.000000 0.393330 -7.796542 0.000000 3.047818 -4.622319 0.000000 7.631519 -17.503577 0.000000 1.902809 -6.