<VTKFile type="UnstructuredGrid" version="0.1" byte_order="LittleEndian">
  <UnstructuredGrid>
    <Piece NumberOfPoints="2000" NumberOfCells="0">
      <Points>
        <DataArray name="Position" type="Float32" NumberOfComponents="3" format="ascii">
-0.001186 -0.000715 0.000000 -0.001186 0.999524 0.000000 -0.001186 1.999524 0.000000 -0.001186 2.999524 0.000000 -0.001495 3.999525 0.000000 -0.001629 4.999525 0.000000 -0.001615 5.999525 0.000000 -0.001650 6.999525 0.000000 -0.001177 7.999526 0.000000 -0.001649 9.000000 0.000000 -0.001173 10.000001 0.000000 -0.001172 11.000474 0.000000 -0.001174 12.000475 0.000000 -0.001174 13.000475 0.000000 -0.001174 14.000475 0.000000 -0.001168 15.000475 0.000000 -0.001168 16.000476 0.000000 -0.001168 17.000476 0.000000 -0.001168 18.000476 0.000000 -0.001168 19.000715 0.000000 0.999521 -0.000715 0.000000 0.999521 0.999524 0.000000 0.999521 1.999524 0.000000 0.999521 2.999524 0.000000 0.998968 3.999525 0.000000 0.998615 4.999525 0.000000 0.998685 5.999525 0.000000 0.999053 6.999525 0.000000 0.999516 7.999526 0.000000 0.999054 9.000000 0.000000 0.999514 10.000001 0.000000 0.999514 11.000474 0.000000 0.999515 12.000475 0.000000 0.999515 13.000475 0.000000 0.999515 14.000475 0.000000 0.999512 15.000475 0.000000 0.999512 16.000476 0.000000 0.999512 17.000476 0.000000 0.999512 18.000476 0.000000 0.999512 19.000715 0.000000 1.999524 -0.000715 0.000000 1.999524 0.999524 0.000000 1.999524 1.999524 0.000000 1.999524 2.999524 0.000000 1.999520 3.999525 0.000000 1.999045 4.999525 0.000000 1.999038 5.999525 0.000000 1.999057 6.999525 0.000000 1.999524 7.999526 0.000000 1.999057 9.000000 0.000000 1.999524 10.000001 0.000000 1.999524 11.000474 0.000000 1.999524 12.000475 0.000000 1.999524 13.000475 0.000000 1.999524 14.000475 0.000000 1.999524 15.000475 0.000000 1.999524 16.000476 0.000000 1.999524 17.000476 0.000000 1.999524 18.000476 0.000000 1.999524 19.000715 0.000000 2.999524 -0.000715 0.000000 2.999524 0.999524 0.000000 2.999524 1.999524 0.000000 2.999524 2.999524 0.000000 2.999523 3.999525 0.000000 2.999053 4.999525 0.000000 2.999055 5.999525 0.000000 2.999061 6.999525 0.000000 2.999524 7.999526 0.000000 2.999061 9.000000 0.000000 2.999524 10.000001 0.000000 2.999524 11.000474 0.000000 2.999524 12.000475 0.000000 2.999524 13.000475 0.000000 2.999524 14.000475 0.000000 2.999524 15.000475 0.000000 2.999524 16.000476 0.000000 2.999524 17.000476 0.000000 2.999524 18.000476 0.000000 2.999524 19.000715 0.000000 3.999524 -0.000715 0.000000 3.999524 0.999524 0.000000 3.999524 1.999524 0.000000 3.999524 2.999524 0.000000 3.999523 3.999525 0.000000 3.999055 4.999525 0.000000 3.999060 5.999525 0.000000 3.999518 6.999525 0.000000 3.999524 7.999526 0.000000 3.999518 9.000000 0.000000 3.999524 10.000001 0.000000 3.999524 11.000474 0.000000 3.999524 12.000475 0.000000 3.999524 13.000475 0.000000 3.999524 14.000475 0.000000 3.999524 15.000475 0.000000 3.999524 16.000476 0.000000 3.999524 17.000476 0.000000 3.999524 18.000476 0.000000 3.999524 19.000715 0.000000 4.999525 -0.002524 0.000000 4.999525 0.998561 0.000000 4.999525 1.998582 0.000000 4.999525 2.998588 0.000000 4.999524 3.999039 0.000000 4.999056 4.999051 0.000000 4.999091 5.999060 0.000000 4.999523 6.999072 0.000000 4.999524 7.999525 0.000000 4.999523 8.999525 0.000000 4.999524 9.999525 0.000000 4.999524 11.000001 0.000000 4.999525 12.000475 0.000000 4.999525 13.000475 0.000000 4.999525 14.000475 0.000000 4.999525 15.000475 0.000000 4.999525 16.000476 0.000000 4.999525 17.000476 0.000000 4.999525 18.000476 0.000000 4.999525 19.000715 0.000000 5.999526 -0.001179 0.000000 5.999526 0.999088 0.000000 5.999526 1.999517 0.000000 5.999526 2.999524 0.000000 5.999526 3.999524 0.000000 5.999062 4.999524 0.000000 5.999096 5.999525 0.000000 5.999523 6.999961 0.000000 5.999525 7.999999 0.000000 5.999523 9.000000 0.000000 5.999525 10.000001 0.000000 5.999524 11.000474 0.000000 5.999525 12.000475 0.000000 5.999525 13.000475 0.000000 5.999525 14.000475 0.000000 5.999525 15.000475 0.000000 5.999525 16.000476 0.000000 5.999525 17.000476 0.000000 5.999525 18.000476 0.000000 5.999525 19.000715 0.000000 6.999526 -0.000715 0.000000 6.999526 0.999524 0.000000 6.999526 1.999524 0.000000 6.999526 2.999524 0.000000 6.999526 3.999525 0.000000 6.999516 4.999525 0.000000 6.999516 5.999525 0.000000 6.999524 6.999526 0.000000 6.999525 7.999526 0.000000 6.999524 8.999999 0.000000 6.999525 10.000001 0.000000 6.999525 11.000474 0.000000 6.999525 12.000475 0.000000 6.999525 13.000475 0.000000 6.999525 14.000475 0.000000 6.999525 15.000475 0.000000 6.999525 16.000476 0.000000 6.999525 17.000476 0.000000 6.999525 18.000476 0.000000 6.999525 19.000715 0.000000 7.999526 -0.000715 0.000000 7.999526 0.999524 0.000000 7.999526 1.999524 0.000000 7.999526 2.999524 0.000000 7.999527 3.999525 0.000000 7.999522 4.999525 0.000000 7.999522 5.999525 0.000000 7.999525 6.999525 0.000000 7.999526 7.999526 0.000000 7.999525 8.999999 0.000000 7.999525 10.000001 0.000000 7.999525 11.000474 0.000000 7.999525 12.000475 0.000000 7.999525 13.000475 0.000000 7.999525 14.000475 0.000000 7.999525 15.000475 0.000000 7.999525 16.000476 0.000000 7.999525 17.000476 0.000000 7.999525 18.000476 0.000000 7.999525 19.000715 0.000000 8.999526 -0.000715 0.000000 8.999526 0.999524 0.000000 8.999526 1.999524 0.000000 8.999526 2.999524 0.000000 8.999527 3.999525 0.000000 8.999523 4.999525 0.000000 8.999524 5.999525 0.000000 8.999526 6.999525 0.000000 8.999526 7.999526 0.000000 8.999526 9.000000 0.000000 8.999526 10.000001 0.000000 8.999526 11.000474 0.000000 8.999526 12.000475 0.000000 8.999526 13.000475 0.000000 8.999526 14.000475 0.000000 8.999526 15.000475 0.000000 8.999526 16.000476 0.000000 8.999526 17.000476 0.000000 8.999526 18.000476 0.000000 8.999526 19.000715 0.000000 9.999527 -0.000715 0.000000 9.999527 0.999524 0.000000 9.999527 1.999524 0.000000 9.999527 2.999524 0.000000 9.999527 3.999525 0.000000 9.999525 4.999525 0.000000 9.999525 5.999525 0.000000 9.999527 6.999525 0.000000 9.999526 7.999526 0.000000 9.999526 9.000000 0.000000 9.999526 10.000001 0.000000 9.999526 11.000474 0.000000 9.999526 12.000475 0.000000 9.999526 13.000475 0.000000 9.999526 14.000475 0.000000 9.999526 15.000475 0.000000 9.999526 16.000476 0.000000 9.999526 17.000476 0.000000 9.999526 18.000476 0.000000 9.999526 19.000715 0.000000 10.999527 -0.000715 0.000000 10.999527 0.999524 0.000000 10.999527 1.999524 0.000000 10.999527 2.999524 0.000000 10.999528 3.999525 0.000000 10.999530 4.999525 0.000000 10.999530 5.999525 0.000000 10.999528 6.999525 0.000000 10.999527 7.999526 0.000000 10.999528 9.000000 0.000000 10.999526 10.000001 0.000000 10.999526 11.000474 0.000000 10.999526 12.000475 0.000000 10.999526 13.000475 0.000000 10.999526 14.000475 0.000000 10.999526 15.000475 0.000000 10.999526 16.000476 0.000000 10.999526 17.000476 0.000000 10.999526 18.000476 0.000000 10.999526 19.000715 0.000000 11.999527 -0.000715 0.000000 11.999527 0.999524 0.000000 11.999527 1.999524 0.000000 11.999527 2.999524 0.000000 11.999528 3.999525 0.000000 11.999530 4.999525 0.000000 11.999530 5.999525 0.000000 11.999528 6.999525 0.000000 11.999527 7.999526 0.000000 11.999528 9.000000 0.000000 11.999527 10.000001 0.000000 11.999527 11.000474 0.000000 11.999527 12.000475 0.000000 11.999527 13.000475 0.000000 11.999527 14.000475 0.000000 11.999527 15.000475 0.000000 11.999527 16.000476 0.000000 11.999527 17.000476 0.000000 11.999527 18.000476 0.000000 11.999527 19.000715 0.000000 12.999528 -0.000715 0.000000 12.999528 0.999524 0.000000 12.999528 1.999524 0.000000 12.999528 2.999524 0.000000 12.999528 3.999525 0.000000 12.999530 4.999525 0.000000 12.999530 5.999525 0.000000 12.999529 6.999525 0.000000 12.999528 7.999526 0.000000 12.999529 9.000000 0.000000 12.999527 10.000001 0.000000 12.999527 11.000474 0.000000 12.999527 12.000475 0.000000 12.999527 13.000475 0.000000 12.999527 14.000475 0.000000 12.999527 15.000475 0.000000 12.999527 16.000476 0.000000 12.999527 17.000476 0.000000 12.999527 18.000476 0.000000 12.999527 19.000715 0.000000 13.999528 -0.000715 0.000000 13.999528 0.999524 0.000000 13.999528 1.999524 0.000000 13.999528 2.999524 0.000000 13.999528 3.999525 0.000000 13.999530 4.999525 0.000000 13.999530 5.999525 0.000000 13.999529 6.999525 0.000000 13.999528 7.999526 0.000000 13.999529 9.000000 0.000000 13.999527 10.000001 0.000000 13.999527 11.000474 0.000000 13.999527 12.000475 0.000000 13.999527 13.000475 0.000000 13.999527 14.000475 0.000000 13.999527 15.000475 0.000000 13.999527 16.000476 0.000000 13.999527 17.000476 0.000000 13.999527 18.000476 0.000000 13.999527 19.000715 0.000000 14.999528 -0.000715 0.000000 14.999528 0.999524 0.000000 14.999528 1.999524 0.000000 14.999528 2.999524 0.000000 14.999529 3.999525 0.000000 14.999531 4.999525 0.000000 14.999531 5.999525 0.000000 14.999529 6.999525 0.000000 14.999528 7.999526 0.000000 14.999529 9.000000 0.000000 14.999528 10.000001 0.000000 14.999528 11.000474 0.000000 14.999528 12.000475 0.000000 14.999528 13.000475 0.000000 14.999528 14.000475 0.000000 14.999528 15.000475 0.000000 14.999528 16.000476 0.000000 14.999528 17.000476 0.000000 14.999528 18.000476 0.000000 14.999528 19.000715 0.000000 15.999528 -0.000715 0.000000 15.999528 0.999524 0.000000 15.999528 1.999524 0.000000 15.999528 2.999524 0.000000 15.999529 3.999525 0.000000 15.999531 4.999525 0.000000 15.999531 5.999525 0.000000 15.999530 6.999525 0.000000 15.999528 7.999526 0.000000 15.999530 9.000000 0.000000 15.999529 10.000001 0.000000 15.999529 11.000474 0.000000 15.999529 12.000475 0.000000 15.999529 13.000475 0.000000 15.999529 14.000475 0.000000 15.999528 15.000475 0.000000 15.999528 16.000476 0.000000 15.999528 17.000476 0.000000 15.999528 18.000476 0.000000 15.999528 19.000715 0.000000 16.999529 -0.000715 0.000000 16.999529 0.999524 0.000000 16.999529 1.999524 0.000000 16.999529 2.999524 0.000000 16.999529 3.999525 0.000000 16.999531 4.999525 0.000000 16.999531 5.999525 0.000000 16.999530 6.999525 0.000000 16.999529 7.999526
[...]
      <PointData Vectors="vector">
        <DataArray type="Float32" Name="Velocity" NumberOfComponents="3" format="ascii">
-0.015000 -0.009000 0.000000 -0.015000 -0.006000 0.000000 -0.015000 -0.006000 0.000000 -0.015000 -0.006000 0.000000 -0.021000 -0.006000 0.000000 -0.021000 -0.006000 0.000000 -0.021000 -0.006000 0.000000 -0.021000 -0.006000 0.000000 -0.015000 -0.006000 0.000000 -0.021000 0.000000 0.000000 -0.015000 0.000000 0.000000 -0.015000 0.006000 0.000000 -0.015000 0.006000 0.000000 -0.015000 0.006000 0.000000 -0.015000 0.006000 0.000000 -0.015000 0.006000 0.000000 -0.015000 0.006000 0.000000 -0.015000 0.006000 0.000000 -0.015000 0.006000 0.000000 -0.015000 0.009000 0.000000 -0.006000 -0.009000 0.000000 -0.006000 -0.006000 0.000000 -0.006000 -0.006000 0.000000 -0.006000 -0.006000 0.000000 -0.012000 -0.006000 0.000000 -0.018000 -0.006000 0.000000 -0.018000 -0.006000 0.000000 -0.012000 -0.006000 0.000000 -0.006000 -0.006000 0.000000 -0.012000 0.000000 0.000000 -0.006000 0.000000 0.000000 -0.006000 0.006000 0.000000 -0.006000 0.006000 0.000000 -0.006000 0.006000 0.000000 -0.006000 0.006000 0.000000 -0.006000 0.006000 0.000000 -0.006000 0.006000 0.000000 -0.006000 0.006000 0.000000 -0.006000 0.006000 0.000000 -0.006000 0.009000 0.000000 -0.006000 -0.009000 0.000000 -0.006000 -0.006000 0.000000 -0.006000 -0.006000 0.000000 -0.006000 -0.006000 0.000000 -0.006000 -0.006000 0.000000 -0.012000 -0.006000 0.000000 -0.012000 -0.006000 0.000000 -0.012000 -0.006000 0.000000 -0.006000 -0.006000 0.000000 -0.012000 0.000000 0.000000 -0.006000 0.000000 0.000000 -0.006000 0.006000 0.000000 -0.006000 0.006000 0.000000 -0.006000 0.006000 0.000000 -0.006000 0.006000 0.000000 -0.006000 0.006000 0.000000 -0.006000 0.006000 0.000000 -0.006000 0.006000 0.000000 -0.006000 0.006000 0.000000 -0.006000 0.009000 0.000000 -0.006000 -0.009000 0.000000 -0.006000 -0.006000 0.000000 -0.006000 -0.006000 0.000000 -0.006000 -0.006000 0.000000 -0.006000 -0.006000 0.000000 -0.012000 -0.006000 0.000000 -0.012000 -0.006000 0.000000 -0.012000 -0.006000 0.000000 -0.006000 -0.006000 0.000000 -0.012000 -0.000000 0.000000 -0.006000 -0.000000 0.000000 -0.006000 0.006000 0.000000 -0.006000 0.006000 0.000000 -0.006000 0.006000 0.000000 -0.006000 0.006000 0.000000 -0.006000 0.006000 0.000000 -0.006000 0.006000 0.000000 -0.006000 0.006000 0.000000 -0.006000 0.006000 0.000000 -0.006000 0.009000 0.000000 -0.006000 -0.009000 0.000000 -0.006000 -0.006000 0.000000 -0.006000 -0.006000 0.000000 -0.006000 -0.006000 0.000000 -0.006000 -0.005999 0.000000 -0.012000 -0.006000 0.000000 -0.012000 -0.005999 0.000000 -0.006000 -0.006000 0.000000 -0.006000 -0.006000 0.000000 -0.006000 0.000000 0.000000 -0.006000 0.000000 0.000000 -0.006000 0.006000 0.000000 -0.006000 0.006000 0.000000 -0.006000 0.006000 0.000000 -0.006000 0.006000 0.000000 -0.006000 0.006000 0.000000 -0.006000 0.006000 0.000000 -0.006000 0.006000 0.000000 -0.006000 0.006000 0.000000 -0.006000 0.009000 0.000000 -0.006000 -0.033000 0.000000 -0.006000 -0.018000 0.000000 -0.006000 -0.018000 0.000000 -0.006000 -0.018000 0.000000 -0.006000 -0.012001 0.000000 -0.012001 -0.012001 0.000000 -0.012000 -0.012001 0.000000 -0.006000 -0.012000 0.000000 -0.006000 -0.006000 0.000000 -0.006000 -0.006000 0.000000 -0.006000 -0.006000 0.000000 -0.006000 -0.000000 0.000000 -0.006000 0.006000 0.000000 -0.006000 0.006000 0.000000 -0.006000 0.006000 0.000000 -0.006000 0.006000 0.000000 -0.006000 0.006000 0.000000 -0.006000 0.006000 0.000000 -0.006000 0.006000 0.000000 -0.006000 0.009000 0.000000 -0.006000 -0.015000 0.000000 -0.006000 -0.012000 0.000000 -0.006000 -0.006000 0.000000 -0.006000 -0.006000 0.000000 -0.006000 -0.005999 0.000000 -0.012000 -0.006000 0.000000 -0.012000 -0.005999 0.000000 -0.006000 -0.000000 0.000000 -0.006000 0.000000 0.000000 -0.006000 0.000000 0.000000 -0.006000 0.000000 0.000000 -0.006000 0.006000 0.000000 -0.006000 0.006000 0.000000 -0.006000 0.006000 0.000000 -0.006000 0.006000 0.000000 -0.006000 0.006000 0.000000 -0.006000 0.006000 0.000000 -0.006000 0.006000 0.000000 -0.006000 0.006000 0.000000 -0.006000 0.009000 0.000000 -0.006000 -0.009000 0.000000 -0.006000 -0.006000 0.000000 -0.006000 -0.006000 0.000000 -0.006000 -0.006000 0.000000 -0.006000 -0.006000 0.000000 -0.006000 -0.006000 0.000000 -0.006000 -0.006000 0.000000 -0.006000 -0.006000 0.000000 -0.006000 -0.006000 0.000000 -0.006000 -0.000000 0.000000 -0.006000 0.000000 0.000000 -0.006000 0.006000 0.000000 -0.006000 0.006000 0.000000 -0.006000 0.006000 0.000000 -0.006000 0.006000 0.000000 -0.006000 0.006000 0.000000 -0.006000 0.006000 0.000000 -0.006000 0.006000 0.000000 -0.006000 0.006000 0.000000 -0.006000 0.009000 0.000000 -0.006000 -0.009000 0.000000 -0.006000 -0.006000 0.000000 -0.006000 -0.006000 0.000000 -0.006000 -0.006000 0.000000 -0.006000 -0.006000 0.000000 -0.006000 -0.006000 0.000000 -0.006000 -0.006000 0.000000 -0.006000 -0.006000 0.000000 -0.006000 -0.006000 0.000000 -0.006000 0.000000 0.000000 -0.006000 0.000000 0.000000 -0.006000 0.006000 0.000000 -0.006000 0.006000 0.000000 -0.006000 0.006000 0.000000 -0.006000 0.006000 0.000000 -0.006000 0.006000 0.000000 -0.006000 0.006000 0.000000 -0.006000 0.006000 0.000000 -0.006000 0.006000 0.000000 -0.006000 0.009000 0.000000 -0.006000 -0.009000 0.000000 -0.006000 -0.006000 0.000000 -0.006000 -0.006000 0.000000 -0.006000 -0.006000 0.000000 -0.006000 -0.006000 0.000000 -0.006000 -0.006000 0.000000 -0.006000 -0.006000 0.000000 -0.006000 -0.006000 0.000000 -0.006000 -0.006000 0.000000 -0.006000 0.000000 0.000000 -0.006000 0.000000 0.000000 -0.006000 0.006000 0.000000 -0.006000 0.006000 0.000000 -0.006000 0.006000 0.000000 -0.006000 0.006000 0.000000 -0.006000 0.006000 0.000000 -0.006000 0.006000 0.000000 -0.006000 0.006000 0.000000 -0.006000 0.006000 0.000000 -0.006000 0.009000 0.000000 -0.006000 -0.009000 0.000000 -0.006000 -0.006000 0.000000 -0.006000 -0.006000 0.000000 -0.006000 -0.006000 0.000000 -0.006000 -0.006000 0.000000 -0.006000 -0.006000 0.000000 -0.006000 -0.006000 0.000000 -0.006000 -0.006000 0.000000 -0.006000 -0.006000 0.000000 -0.006000 -0.000000 0.000000 -0.006000 0.000000 0.000000 -0.006000 0.006000 0.000000 -0.006000 0.006000 0.000000 -0.006000 0.006000 0.000000 -0.006000 0.006000 0.000000 -0.006000 0.006000 0.000000 -0.006000 0.006000 0.000000 -0.006000 0.006000 0.000000 -0.006000 0.006000 0.000000 -0.006000 0.009000 0.000000 -0.006000 -0.009000 0.000000 -0.006000 -0.006000 0.000000 -0.006000 -0.006000 0.000000 -0.006000 -0.006000 0.000000 -0.006000 -0.006000 0.000000 -0.006000 -0.006000 0.000000 -0.006000 -0.006000 0.000000 -0.006000 -0.006000 0.000000 -0.006000 -0.006000 0.000000 -0.006000 0.000000 0.000000 -0.006000 0.000000 0.000000 -0.006000 0.006000 0.000000 -0.006000 0.006000 0.000000 -0.006000 0.006000 0.000000 -0.006000 0.006000 0.000000 -0.006000 0.006000 0.000000 -0.006000 0.006000 0.000000 -0.006000 0.006000 0.000000 -0.006000 0.006000 0.000000 -0.006000 0.009000 0.000000 -0.006000 -0.009000 0.000000 -0.006000 -0.006000 0.000000 -0.006000 -0.006000 0.000000 -0.006000 -0.006000 0.000000 -0.006000 -0.006000 0.000000 -0.006000 -0.006000 0.000000 -0.006000 -0.006000 0.000000 -0.006000 -0.006000 0.000000 -0.006000 -0.006000 0.000000 -0.006000 0.000000 0.000000 -0.006000 0.000000 0.000000 -0.006000 0.006000 0.000000 -0.006000 0.006000 0.000000 -0.006000 0.006000 0.000000 -0.006000 0.006000 0.000000 -0.006000 0.006000 0.000000 -0.006000 0.006000 0.000000 -0.006000 0.006000 0.000000 -0.006000 0.006000 0.000000 -0.006000 0.009000 0.000000 -0.006000 -0.009000 0.000000 -0.006000 -0.006000 0.000000 -0.006000 -0.006000 0.000000 -0.006000 -0.006000 0.000000 -0.006000 -0.006000 0.000000 -0.006000 -0.006000 0.000000 -0.006000 -0.006000 0.000000 -0.006000 -0.006000 0.000000 -0.006000 -0.006000 0.000000 -0.006000 0.000000 0.000000 -0.006000 0.000000 0.000000 -0.006000 0.006000 0.000000 -0.006000 0.006000 0.000000 -0.006000 0.006000 0.000000 -0.006000 0.006000 0.000000 -0.006000 0.006000 0.000000 -0.006000 0.006000 0.000000 -0.006000 0.006000 0.000000 -0.006000 0.006000 0.000000 -0.006000 0.009000 0.000000 -0.006000 -0.009000 0.000000 -0.006000 -0.006000 0.000000 -0.006000 -0.006000 0.000000 -0.006000 -0.006000 0.000000 -0.006000 -0.006000 0.000000 -0.006000 -0.006000 0.000000 -0.006000 -0.006000 0.000000 -0.006000 -0.006000 0.000000 -0.006000 -0.006000 0.000000 -0.006000 0.000000 0.000000 -0.006000 0.000000 0.000000 -0.006000 0.006000 0.000000 -0.006000 0.006000 0.000000 -0.006000 0.006000 0.000000 -0.006000 0.006000 0.000000 -0.006000 0.006000 0.000000 -0.006000 0.006000 0.000000 -0.006000 0.006000 0.000000 -0.006000 0.006000 0.000000 -0.006000 0.009000 0.000000 -0.006000 -0.009000 0.000000 -0.006000 -0.006000 0.000000 -0.006000 -0.006000 0.000000 -0.006000 -0.006000 0.000000 -0.006000 -0.006000 0.000000 -0.006000 -0.006000 0.000000 -0.006000 -0.006000 0.000000 -0.006000 -0.006000 0.000000 -0.006000 -0.006000 0.000000 -0.006000 0.000000 0.000000 -0.006000 0.000000 0.000000 -0.006000 0.006000 0.000000 -0.006000 0.006000 0.000000 -0.006000 0.006000 0.000000 -0.006000 0.006000 0.000000 -0.006000 0.006000 0.000000 -0.006000 0.006000 0.000000 -0.006000 0.006000 0.000000 -0.006000 0.006000 0.000000 -0.006000 0.009000 0.000000 -0.006000 -0.009000 0.000000 -0.006000 -0.006000 0.000000 -0.006000 -0.006000 0.000000 -0.006000 -0.006000 0.000000 -0.006000 -0.006000 0.000000 -0.006000 -0.006000 0.000000 -0.006000 -0.006000 0.000000 -0.006000 -0.006000 0.000000 -0.006000 -0.006000 0.000000 -0.006000 0.000000 0.000000 -0.006000 0.000000 0.000000 -0.006000 0.006000 0.000000 -0.006000 0.006000 0.000000 -0.006000 0.006000 0.000000 -0.006000 0.006000 0.000000 -0.006000 0.006000 0.000000 -0.006000 0.006000 0.000000 -0.006000 0.006000 0.000000 -0.006000 0.006000 0.000000 -0.006000 0.009000 0.000000 -0.006000 -0.009000 0.000000 -0.006000 -0.006000 0.000000 -0.006000 -0.006000 0.000000 -0.006000 -0.006000 0.000000 -0.006000 -0.006000 0.000000 -0.006000 -0.006000 0.000000 -0.006000 -0.006000 0.000000 -0.006000 -0.006000 0.000000 -0.006000 -0.006000 0.000000 -0.006000 0.000000 0.000000 -0.006000 0.000000 0.000000 -0.006000 0.006000 0.000000 -0.006000 0.006000 0.000000 -0.006000 0.006000 0.000000 -0.006000 0.006000 0.000000 -0.006000 0.006000 0.000000 -0.006000 0.006000 0.000000 -0.006000 0.006000 0.000000 -0.006000 0.006000 0.000000 -0.006000 0.009000 0.000000 -0.006000 -0.009000 0.000000 -0.006000 -0.006000 0.000000 -0.006000 -0.006000 0.000000 -0.006000 -0.006000 0.000000 -0.006000 -0.006000 0.000000 -0.006000 -0.006000 0.000000 -0.006000 -0.006000 0.000000 -0.006000 -0.006000 0.000000 -0.006000 -0.006000 0.000000 -0.006000 0.000000 0.000000 -0.006000 0.000000 0.000000 -0.006000 0.006000 0.000000 -0.006000 0.006000 0.000000 -0.006000 0.006000 0.000000 -0.006000 0.006000 0.000000 -0.006000 0.006000 0.000000 -0.006000 0.006000 0.000000 -0.006000 0.006000 0.000000 -0.006000 0.006000 0.000000 -0.006000 0.009000 0.000000 -0.006000 -0.009000 0.000000 -0.006000 -0.006000 0.000000 -0.006000 -0.006000 0.000000 -0.006000 -0.006000 0.000000 -0.006000 -0.006000 0.000000 -0.006000 -0.006000 0.000000 -0.006000 -0.006000 0.000000 -0.006000 -0.006000 0.000000 -0.006000 -0.006000 0.000000 -0.006000 0.000000 0.000000 -0.006000 0.000000 0.000000 -0.006000 0.006000 0.000000 -0.006000 0.006000 0.000000 -0.006000 0.006000 0.000000 -0.006000 0.006000 0.000000 -0.006000 0.006000 0.000000 -0.006000 0.006000 0.000000 -0.006000 0.006000 0.000000 -0.006000 0.006000 0.000000 -0.006000 0.009000 0.000000 -0.006000 -0.009000 0.000000 -0.006000 -0.006000 0.000000 -0.006000 -0.006000 0.000000 -0.006000 -0.006000 0.000000 -0.006000 -0.006000 0.000000 -0.006000 -0.006000 0.000000 -0.006000 -0.006000 0.000000 -0.006000 -0.006000 0.000000 -0.006000 -0.006000 0.000000 -0.006000 0.000000 0.000000 -0.006000 0.000000 0.000000 -0.006000 0.006000 0.000000 -0.006000 0.006000 0.000000 -0.006000 0.006000 0.000000 -0.006000 0.006000 0.000000 -0.006000 0.006000 0.000000 -0.006000 0.006000 0.000000 -0.006000 0.006000 0.000000 -0.006000 0.006000 0.000000 -0.006000 0.009000 0.000000 -0.006000 -0.009000 0.000000 -0.006000 -0.006000 0.000000 -0.006000 -0.006000 0.000000 -0.006000 -0.006000 0.000000 -0.006000 -0.006000 0.000000 -0.006000 -0.006000 0.000000 -0.006000 -0.006000 0.000000 -0.006000 -0.006000 0.000000 -0.006000 -0.006000 0.000000 -0.006000 0.000000 0.000000 -0.006000 0.000000 0.000000 -0.006000 0.006000 0.000000 -0.006000 0.006000 0.000000 -0.006000 0.006000 0.000000 -0.006000 0.006000 0.000000 -0.006000 0.006000 0.000000 -0.006000 0.006000 0.000000 -0.006000 0.006000 0.000000 -0.006000 0.006000 0.000000 -0.006000 0.009000 0.000000 -0.006000 -0.009000 0.000000 -0.006000 -0.006000 0.000000 -0.006000 -0.006000 0.000000 -0.006000 -0.006000 0.000000 -0.006000 -0.006000 0.000000 -0.006000 -0.006000 0.000000 -0.006000 -0.006000 0.000000 -0.006000 -0.006000 0.000000 -0.006000 -0.006000 0.000000 -0.006000 0.000000 0.000000 -0.006000 0.000000 0.000000 -0.006000 0.006000 0.000000 -0.006000 0.006000 0.000000 -0.006000 0.006000 0.000000 -0.006000 0.006000 0.000000 -0.006000 0.006000 0.000000 -0.006000 0.006000 0.000000 -0.006000 0.006000 0.000000 -0.006000 0.006000 0.000000 -0.006000 0.009000 0.000000 -0.006000 -0.009000 0.000000 -0.006000 -0.006000 0.000000 -0.006000 -0.006000 0.000000 -0.006000 -0.006000 0.000000 -0.006000 -0.006000 0.000000 -0.006000 -0.006000 0.000000 -0.006000 -0.006000 0.000000 -0.006000 -0.006000 0.000000 -0.006000 -0.006000 0.000000 -0.006000 0.000000 0.000000 -0.006000 0.000000 0.000000 -0.006000 0.006000 0.000000 -0.006000 0.006000 0.000000 -0.006000 0.006000 0.000000 -0.006000 0.006000 0.000000 -0.006000 0.006000 0.000000 -0.006000 0.006000 0.000000 -0.006000 0.006000 0.000000 -0.006000 0.006000 0.000000 -0.006000 0.009000 0.000000 -0.006000 -0.009000 0.000000 -0.006000 -0.006000 0.000000 -0.006000 -0.006000 0.000000 -0.006000 -0.006000 0.000000 -0.006000 -0.006000 0.000000 -0.006000 -0.006000 0.000000 -0.006000 -0.006000 0.000000 -0.006000 -0.006000 0.000000 -0.006000 -0.006000 0.000000 -0.006000 0.000000 0.000000 -0.006000 0.000000 0.000000 -0.006000 0.006000 0.000000 -0.006000 0.006000 0.000000 -0.006000 0.006000 0.000000 -0.006000 0.006000 0.000000 -0.006000 0.006000 0.000000 -0.006000 0.006000 0.000000 -0.006000 0.006000 0.000000 -0.006000 0.006000 0.000000 -0.006000 0.009000 0.000000 -0.006000 -0.009000 0.000000 -0.006000 -0.006000 0.000000 -0.006000 -0.006000 0.000000 -0.006000 -0.006000 0.000000 -0.006000 -0.006000 0.000000 -0.006000 -0.006000 0.000000 -0.006000 -0.006000 0.000000 -0.006000 -0.006000 0.000000 -0.006000 -0.006000 0.000000 -0.006000 0.000000 0.000000 -0.006000 0.000000 0.000000 -0.006000 0.006000 0.000000 -0.006000 0.006000 0.000000 -0.006000 0.006000 0.000000 -0.006000 0.006000 0.000000 -0.006000 0.006000 0.000000 -0.006000 0.006000 0.000000 -0.006000 0.006000 0.000000 -0.006000 0.006000 0.000000 -0.006000 0.009000 0.000000 -0.006000 -0.009000 0.000000 -0.006000 -0.006000 0.000000 -0.006000 -0.006000 0.000000 -0.006000 -0.006000 0.000000 -0.006000 -0.006000 0.000000 -0.006000 -0.006000 0.000000 -0.006000 -0.006000 0.000000 -0.006000 -0.006000 0.000000 -0.006000 -0.006000 0.000000 -0.006000 0.000000 0.000000 -0.006000 0.000000 0.000000 -0.006000 0.006000 0.000000 -0.006000 0.006000 0.000000 -0.006000 0.006000 0.000000 -0.006000 0.006000 0.000000 -0.006000 0.006000 0.000000 -0.006000 0.006000 0.000000 -0.006000 0.006000 0.000000 -0.006000 0.006000 0.000000 -0.006000 0.009000 0.000000 -0.006000 -0.009000 0.000000 -0.006000 -0.006000 0.000000 -0.006000 -0.006000 0.000000 -0.006000 -0.006000 0.000000 -0.006000 -0.006000 0.000000 -0.006000 -0.006000 0.000000 -0.006000 -0.006000 0.000000 -0.006000 -0.006000 0.000000 -0.006000 -0.006000 0.000000 -0.006000 0.000000 0.000000 -0.006000 0.000000 0.000000 -0.006000 0.006000 0.000000 -0.006000 0.006000 0.000000 -0.006000 0.006000 0.000000 -0.006000 0.006000 0.000000 -0.006000 0.006000 0.000000 -0.006000 0.006000 0.000000 -0.006000 0.006000 0.000000 -0.006000 0.006000 0.000000 -0.006000 0.009000 0.000000 -0.006000 -0.009000 0.000000 -0.006000 -0.006000 0.000000 -0.006000 -0.006000 0.000000 -0.006000 -0.006000 0.000000 -0.006000 -0.006000 0.000000 -0.006000 -0.006000 0.000000 -0.006000 -0.006000 0.000000 -0.006000 -0.006000 0.000000 -0.006000 -0.006000 0.000000 -0.006000 0.000000 0.000000 -0.006000 0.000000 0.000000 -0.006000 0.006000 0.000000 -0.006000 0.006000 0.000000 -0.006000 0.006000 0.000000 -0.006000 0.006000 0.000000 -0.006000 0.006000 0.000000 -0.006000 0.006000 0.000000 -0.006000 0.006000 0.000000 -0.006000 0.006000 0.000000 -0.006000 0.009000 0.000000 -0.006000 -0.009000 0.000000 -0.006000 -0.006000 0.000000 -0.006000 -0.006000 0.000000 -0.006000 -0.006000 0.000000 -0.006000 -0.006000 0.000000 -0.006000 -0.006000 0.000000 -0.006000 -0.006000 0.000000 -0.006000 -0.006000 0.000000 -0.006000 -0.006000 0.000000 -0.006000 0.000000 0.000000 -0.006000 0.000000 0.000000 -0.006000 0.006000 0.000000 -0.006000 0.006000 0.000000 -0.006000 0.006000 0.000000 -0.006000 0.006000 0.000000 -0.006000 0.006000 0.000000 -0.006000 0.006000 0.000000 -0.006000 0.006000 0.000000 -0.006000 0.006000 0.000000 -0.006000 0.009000 0.000000 -0.006000 -0.009000 0.000000 -0.006000 -0.006000 0.000000 -0.006000 -0.006000 0.000000 -0.006000 -0.006000 0.000000 -0.006000 -0.006000 0.000000 -0.006000 -0.006000 0.000000 -0.006000 -0.006000 0.000000 -0.006000 -0.006000 0.000000 -0.006000 -0.006000 0.000000 -0.006000 0.000000 0.000000 -0.006000 0.000000 0.000000 -0.006000 0.006000 0.000000 -0.006000 0.006000 0.000000 -0.006000 0.006000 0.000000 -0.006000 0.006000 0.000000 -0.006000 0.006000 0.000000 -0.006000 0.006000 0.000000 -0.006000 0.006000 0.000000 -0.006000 0.006000 0.000000 -0.006000 0.009000 0.000000 -0.006000 -0.009000 0.000000 -0.006000 -0.006000 0.000000 -0.006000 -0.006000 0.000000 -0.006000 -0.006000 0.000000 -0.006000 -0.006000 0.000000 -0.006000 -0.006000 0.000000 -0.006000 -0.006000 0.000000 -0.006000 -0.006000 0.000000 -0.006000 -0.006000 0.000000 -0.006000 0.000000 0.000000 -0.006000 0.000000 0.000000 -0.006000 0.006000 0.000000 -0.006000 0.006000 0.000000 -0.006000 0.006000 0.000000 -0.006000 0.006000 0.000000 -0.006000 0.006000 0.000000 -0.006000 0.006000 0.000000 -0.006000 0.006000 0.000000 -0.006000 0.006000 0.000000 -0.006000 0.009000 0.000000 -0.006000 -0.009000 0.000000 -0.006000 -0.006000 0.000000 -0.006000 -0.006000 0.000000 -0.006000 -0.006000 0.000000 -0.006000 -0.006000 0.000000 -0.006000 -0.006000 0.000000 -0.006000 -0.006000 0.000000 -0.006000 -0.006000 0.000000 -0.006000 -0.006000 0.000000 -0.006000 0.000000 0.000000 -0.006000 0.000000 0.000000 -0.006000 0.006000 0.000000 -0.006000 0.006000 0.000000 -0.006000 0.006000 0.000000 -0.006000 0.006000 0.000000 -0.006000 0.006000 0.000000 -0.006000 0.006000 0.000000 -0.006000 0.006000 0.000000 -0.006000 0.006000 0.000000 -0.006000 0.009000 0.000000 -0.006000 -0.009000 0.000000 -0.006000 -0.006000 0.000000 -0.006000 -0.006000 0.000000 -0.006000 -0.006000 0.000000 -0.006000 -0.006000 0.000000 0.000000 -0.006000 0.000000 0.000000 -0.006000 0.000000 -0.006000 -0.006000 0.000000 -0.006000 -0.006000 0.000000 -0.006000 0.000000 0.000000 -0.006000 0.000000 0.000000 -0.006000 0.006000 0.000000 -0.006000 0.006000 0.000000 -0.006000 0.006000 0.000000 -0.006000 0.006000 0.000000 -0.006000 0.006000 0.000000 -0.006000 0.006000 0.000000 -0.006000 0.006000 0.000000 -0.006000 0.006000 0.000000 -0.006000 0.009000 0.000000 -0.006000 -0.009000 0.000000 -0.006000 -0.006000 0.000000 -0.006000 -0.006000 0.000000 -0.006000 -0.006000 0.000000 -0.006000 -0.006000 0.000000 0.000000 -0.006000 0.000000 0.000000 -0.006000 0.000000 -0.006000 -0.006000 0.000000 -0.006000 -0.006000 0.000000 -0.006000 0.000000 0.000000 -0.006000 0.000000 0.000000 -0.006000 0.006000 0.000000 -0.006000 0.006000 0.000000 -0.006000 0.006000 0.000000 -0.006000 0.006000 0.000000 -0.006000 0.006000 0.000000 -0.006000 0.006000 0.000000 -0.006000 0.006000 0.000000 -0.006000 0.006