<VTKFile type="UnstructuredGrid" version="0.1" byte_order="LittleEndian">
  <UnstructuredGrid>
    <Piece NumberOfPoints="2000" NumberOfCells="0">
      <Points>
        <DataArray name="Position" type="Float32" NumberOfComponents="3" format="ascii">
-0.008431 -0.005062 0.000000 -0.009793 0.996626 0.000000 -0.008431 1.996626 0.000000 -0.015500 2.996626 0.000000 -0.028706 3.996626 0.000000 -0.011772 4.996627 0.000000 -0.044294 5.996627 0.000000 -0.011793 6.996627 0.000000 -0.053987 7.996628 0.000000 -0.011792 9.000000 0.000000 -0.009007 10.000001 0.000000 -0.070869 11.003372 0.000000 -0.008419 12.003373 0.000000 -0.008419 13.003373 0.000000 -0.061043 14.003373 0.000000 -0.008413 15.003373 0.000000 -0.008413 16.003374 0.000000 -0.127463 17.003374 0.000000 -0.041302 18.003374 0.000000 -0.172035 19.005062 0.000000 0.993892 -0.005062 0.000000 0.990322 0.996466 0.000000 0.991621 1.996626 0.000000 0.985640 2.996681 0.000000 0.971918 3.996733 0.000000 0.989921 4.996627 0.000000 0.958738 5.996627 0.000000 0.991339 6.996627 0.000000 0.946316 7.996619 0.000000 0.991590 9.000000 0.000000 0.991313 10.000001 0.000000 0.930501 11.003372 0.000000 0.993602 12.003373 0.000000 0.994902 13.003373 0.000000 0.939243 14.003373 0.000000 0.995254 15.003373 0.000000 0.994648 16.003374 0.000000 0.872630 17.003374 0.000000 0.958783 18.003374 0.000000 0.828591 19.005061 0.000000 1.994123 -0.005062 0.000000 1.990541 0.995965 0.000000 1.995045 1.996626 0.000000 1.985685 2.996626 0.000000 1.977050 3.996627 0.000000 1.991790 4.996626 0.000000 1.959768 5.996620 0.000000 1.991369 6.996627 0.000000 1.946822 7.997187 0.000000 1.991611 9.000000 0.000000 1.991317 10.000001 0.000000 1.930667 11.003387 0.000000 1.993624 12.003373 0.000000 1.994923 13.003373 0.000000 1.939259 14.003372 0.000000 1.995289 15.003373 0.000000 1.994674 16.003374 0.000000 1.872640 17.003374 0.000000 1.958867 18.003376 0.000000 1.828690 19.005077 0.000000 2.994136 -0.005050 0.000000 2.990630 0.994993 0.000000 2.995804 1.995444 0.000000 2.985946 2.996105 0.000000 2.978818 3.996387 0.000000 2.991801 4.996905 0.000000 2.959795 5.996947 0.000000 2.993257 6.997813 0.000000 2.946902 7.998204 0.000000 2.991815 9.000000 0.000000 2.991337 10.000001 0.000000 2.931845 11.003004 0.000000 2.993625 12.003374 0.000000 2.994927 13.003383 0.000000 2.939439 14.003388 0.000000 2.995508 15.003374 0.000000 2.994674 16.004130 0.000000 2.872597 17.003374 0.000000 2.959096 18.003249 0.000000 2.828936 19.004684 0.000000 3.994383 -0.006723 0.000000 3.990672 0.994336 0.000000 3.995810 1.994335 0.000000 3.986049 2.994458 0.000000 3.979027 3.995979 0.000000 3.993219 4.998869 0.000000 3.959889 5.999192 0.000000 3.993268 6.999887 0.000000 3.946981 8.000398 0.000000 3.993257 9.000010 0.000000 3.991338 10.000016 0.000000 3.931855 11.000808 0.000000 3.995113 12.003373 0.000000 3.995763 13.003373 0.000000 3.939444 14.003372 0.000000 3.995926 15.003374 0.000000 3.995636 16.003374 0.000000 3.872726 17.003376 0.000000 3.959509 18.004556 0.000000 3.829184 19.007482 0.000000 4.994332 -0.018584 0.000000 4.990814 0.985678 0.000000 4.996614 1.989849 0.000000 4.986063 2.990850 0.000000 4.980391 3.992309 0.000000 4.993227 4.992349 0.000000 4.960206 5.991888 0.000000 4.993397 6.992130 0.000000 4.946966 7.991553 0.000000 4.993259 8.996605 0.000000 4.991355 9.999220 0.000000 4.931988 10.998859 0.000000 4.995113 12.003373 0.000000 4.995763 13.003373 0.000000 4.939895 14.003373 0.000000 4.995936 15.003373 0.000000 4.995636 16.003374 0.000000 4.872778 17.003373 0.000000 4.959735 18.003009 0.000000 4.829268 19.004133 0.000000 5.994307 -0.008316 0.000000 5.990950 0.993495 0.000000 5.996629 1.994072 0.000000 5.986316 2.994469 0.000000 5.981517 3.997094 0.000000 5.993339 4.997454 0.000000 5.960205 5.999423 0.000000 5.993746 6.999749 0.000000 5.946961 8.001027 0.000000 5.993263 9.000671 0.000000 5.991873 10.000982 0.000000 5.932242 11.003084 0.000000 5.995121 12.003373 0.000000 5.995771 13.003373 0.000000 5.940900 14.003370 0.000000 5.995939 15.003374 0.000000 5.995647 16.003374 0.000000 5.872795 17.003376 0.000000 5.959932 18.004788 0.000000 5.829378 19.007429 0.000000 6.994543 -0.006872 0.000000 6.990960 0.994101 0.000000 6.996629 1.994980 0.000000 6.986804 2.995530 0.000000 6.981696 3.995664 0.000000 6.994713 4.997718 0.000000 6.960262 5.998429 0.000000 6.995752 6.999124 0.000000 6.947006 7.999417 0.000000 6.996617 8.999999 0.000000 6.993956 10.000001 0.000000 6.932373 11.002882 0.000000 6.995134 12.003373 0.000000 6.995785 13.003392 0.000000 6.940924 14.003409 0.000000 6.995953 15.003374 0.000000 6.995656 16.004065 0.000000 6.872810 17.003373 0.000000 6.960056 18.003130 0.000000 6.829509 19.004537 0.000000 7.994551 -0.005033 0.000000 7.990983 0.995334 0.000000 7.996629 1.996063 0.000000 7.987049 2.996251 0.000000 7.981941 3.996436 0.000000 7.994965 4.996912 0.000000 7.960245 5.996749 0.000000 7.996072 6.997175 0.000000 7.947126 7.997749 0.000000 7.996621 8.999999 0.000000 7.993964 10.000001 0.000000 7.932510 11.003407 0.000000 7.996615 12.003373 0.000000 7.996615 13.003373 0.000000 7.941024 14.003368 0.000000 7.996412 15.003373 0.000000 7.996612 16.003374 0.000000 7.872867 17.003374 0.000000 7.960110 18.003382 0.000000 7.829865 19.005105 0.000000 8.994825 -0.005062 0.000000 8.990987 0.996280 0.000000 8.996630 1.996627 0.000000 8.987175 2.996640 0.000000 8.981939 3.996632 0.000000 8.996617 4.997011 0.000000 8.960113 5.996627 0.000000 8.996264 6.996627 0.000000 8.947191 7.996306 0.000000 8.996622 9.000000 0.000000 8.993969 10.000001 0.000000 8.932695 11.003372 0.000000 8.996626 12.003373 0.000000 8.996624 13.003373 0.000000 8.941270 14.003373 0.000000 8.996612 15.003373 0.000000 8.996624 16.003374 0.000000 8.872821 17.003374 0.000000 8.959971 18.003374 0.000000 8.830098 19.005060 0.000000 9.995086 -0.005062 0.000000 9.991071 0.996628 0.000000 9.996630 1.996626 0.000000 9.987312 2.996626 0.000000 9.982150 3.996626 0.000000 9.996624 4.996627 0.000000 9.960083 5.996627 0.000000 9.996615 6.996627 0.000000 9.947268 7.996637 0.000000 9.996624 9.000000 0.000000 9.993971 10.000001 0.000000 9.932700 11.003372 0.000000 9.996626 12.003373 0.000000 9.996626 13.003373 0.000000 9.941577 14.003373 0.000000 9.996624 15.003373 0.000000 9.996626 16.003374 0.000000 9.872941 17.003374 0.000000 9.959866 18.003374 0.000000 9.830164 19.005062 0.000000 10.995116 -0.005062 0.000000 10.991236 0.996626 0.000000 10.996630 1.996626 0.000000 10.988034 2.996626 0.000000 10.982428 3.996627 0.000000 10.996632 4.996627 0.000000 10.960065 5.996627 0.000000 10.996632 6.996627 0.000000 10.947286 7.996627 0.000000 10.996627 9.000000 0.000000 10.993971 10.000001 0.000000 10.933116 11.003372 0.000000 10.996627 12.003373 0.000000 10.996627 13.003373 0.000000 10.942292 14.003373 0.000000 10.996627 15.003373 0.000000 10.996627 16.003374 0.000000 10.872949 17.003374 0.000000 10.959764 18.003374 0.000000 10.830186 19.005062 0.000000 11.995118 -0.005062 0.000000 11.991502 0.996626 0.000000 11.996630 1.996626 0.000000 11.988075 2.996626 0.000000 11.982670 3.996626 0.000000 11.996632 4.996627 0.000000 11.960031 5.996627 0.000000 11.996632 6.996627 0.000000 11.947281 7.996628 0.000000 11.996630 9.000000 0.000000 11.993973 10.000001 0.000000 11.933160 11.003372 0.000000 11.996627 12.003373 0.000000 11.996627 13.003373 0.000000 11.942944 14.003373 0.000000 11.996627 15.003373 0.000000 11.996627 16.003374 0.000000 11.873011 17.003374 0.000000 11.960021 18.003374 0.000000 11.830388 19.005062 0.000000 12.995370 -0.005062 0.000000 12.991822 0.996626 0.000000 12.996631 1.996626 0.000000 12.988250 2.996626 0.000000 12.982941 3.996627 0.000000 12.996632 4.996627 0.000000 12.960040 5.996627 0.000000 12.996632 6.996627 0.000000 12.947265 7.996628 0.000000 12.996630 9.000000 0.000000 12.996613 10.000001 0.000000 12.933250 11.003372 0.000000 12.996627 12.003373 0.000000 12.996627 13.003373 0.000000 12.943547 14.003373 0.000000 12.996627 15.003373 0.000000 12.996627 16.003374 0.000000 12.873036 17.003374 0.000000 12.960062 18.003374 0.000000 12.830447 19.005062 0.000000 13.995371 -0.005062 0.000000 13.992094 0.996626 0.000000 13.996631 1.996626 0.000000 13.988290 2.996626 0.000000 13.982860 3.996627 0.000000 13.996632 4.996627 0.000000 13.960053 5.996627 0.000000 13.996632 6.996627 0.000000 13.947313 7.996628 0.000000 13.996631 9.000000 0.000000 13.996623 10.000001 0.000000 13.933565 11.003372 0.000000 13.996627 12.003373 0.000000 13.996627 13.003373 0.000000 13.943827 14.003373 0.000000 13.996627 15.003373 0.000000 13.996627 16.003374 0.000000 13.873041 17.003374 0.000000 13.960083 18.003374 0.000000 13.830751 19.005062 0.000000 14.995372 -0.005062 0.000000 14.992113 0.996626 0.000000 14.996631 1.996626 0.000000 14.988468 2.996626 0.000000 14.982828 3.996627 0.000000 14.996633 4.996627 0.000000 14.959975 5.996627 0.000000 14.996633 6.996627 0.000000 14.947081 7.996628 0.000000 14.996631 9.000000 0.000000 14.996623 10.000001 0.000000 14.933698 11.003372 0.000000 14.996631 12.003373 0.000000 14.996631 13.003373 0.000000 14.944125 14.003373 0.000000 14.996628 15.003373 0.000000 14.996628 16.003374 0.000000 14.873041 17.003374 0.000000 14.960158 18.003374 0.000000 14.830924 19.005062 0.000000 15.995381 -0.005062 0.000000 15.992363 0.996626 0.000000 15.996632 1.996626 0.000000 15.988571 2.996626 0.000000 15.982630 3.996627 0.000000 15.996633 4.996627 0.000000 15.959995 5.996627 0.000000 15.996633 6.996627 0.000000 15.947047 7.996628 0.000000 15.996631 9.000000 0.000000 15.996626 10.000001 0.000000 15.934120 11.003372 0.000000 15.996633 12.003373 0.000000 15.996633 13.003373 0.000000 15.944722 14.003373 0.000000 15.996628 15.003373 0.000000 15.996628 16.003374 0.000000 15.873005 17.003374 0.000000 15.960058 18.003374 0.000000 15.830960 19.005062 0.000000 16.995638 -0.005062 0.000000 16.992374 0.996626 0.000000 16.996632 1.996626 0.000000 16.988778 2.996626 0.000000 16.982630 3.996627 0.000000 16.996633 4.996627 0.000000 16.959994 5.996627 0.000000 16.996633 6.996627 0.000000 16.947061 7.996628
[...]
      <PointData Vectors="vector">
        <DataArray type="Float32" Name="Velocity" NumberOfComponents="3" format="ascii">
-0.015000 -0.009000 0.000000 -0.117001 -0.005992 0.000000 -0.015000 -0.006000 0.000000 -0.297007 -0.006006 0.000000 -0.453076 -0.006002 0.000000 -0.021000 -0.006000 0.000000 -0.477059 -0.006000 0.000000 -0.021000 -0.006000 0.000000 -0.543009 -0.006000 0.000000 -0.021000 0.000000 0.000000 -0.021000 0.000000 0.000000 -0.801022 0.006000 0.000000 -0.015000 0.006000 0.000000 -0.015000 0.006000 0.000000 -0.543012 0.006000 0.000000 -0.015000 0.006000 0.000000 -0.015000 0.006000 0.000000 -1.023021 0.006000 0.000000 -0.561004 0.006000 0.000000 -1.179023 0.009000 0.000000 -0.066000 -0.009000 0.000000 -0.125992 -0.011916 0.000000 -0.018004 -0.006000 0.000000 -0.245938 -0.005982 0.000000 -0.396080 0.000002 0.000000 -0.018000 -0.006000 0.000000 -0.420048 -0.005999 0.000000 -0.018000 -0.006000 0.000000 -0.690001 -0.006236 0.000000 -0.018000 0.000000 0.000000 -0.018000 0.000000 0.000000 -0.786002 0.005996 0.000000 -0.018000 0.006000 0.000000 -0.018000 0.006000 0.000000 -0.534013 0.006000 0.000000 -0.018000 0.006000 0.000000 -0.018000 0.006000 0.000000 -1.032005 0.006000 0.000000 -0.702007 0.006000 0.000000 -1.296035 0.008993 0.000000 -0.060000 -0.009000 0.000000 -0.131998 -0.011755 0.000000 -0.017979 -0.005995 0.000000 -0.258042 -0.005716 0.000000 -0.311941 -0.005972 0.000000 -0.017997 -0.006000 0.000000 -0.569989 -0.006147 0.000000 -0.018000 -0.006000 0.000000 -0.612018 -0.001517 0.000000 -0.018000 0.000000 0.000000 -0.018000 0.000000 0.000000 -0.786051 0.006405 0.000000 -0.018000 0.006000 0.000000 -0.018000 0.006000 0.000000 -0.545988 0.005987 0.000000 -0.018000 0.006000 0.000000 -0.018000 0.006000 0.000000 -1.059027 0.006000 0.000000 -0.612006 0.006053 0.000000 -1.164034 0.009343 0.000000 -0.060000 -0.008751 0.000000 -0.096000 -0.011994 0.000000 -0.011971 -0.011985 0.000000 -0.240041 -0.010687 0.000000 -0.252100 -0.011007 0.000000 -0.017983 -0.000009 0.000000 -0.558077 -0.003615 0.000000 -0.011998 -0.000007 0.000000 -0.605996 -0.001221 0.000000 -0.018000 -0.000000 0.000000 -0.018000 -0.000000 0.000000 -0.720005 0.005194 0.000000 -0.017990 0.006000 0.000000 -0.017966 0.006000 0.000000 -0.534064 0.006029 0.000000 -0.017967 0.006000 0.000000 -0.018003 0.012000 0.000000 -0.975001 0.005996 0.000000 -0.666010 0.003479 0.000000 -1.182035 0.003715 0.000000 -0.053987 -0.012912 0.000000 -0.107984 -0.008291 0.000000 -0.011985 -0.011912 0.000000 -0.185994 -0.010433 0.000000 -0.245947 -0.002761 0.000000 -0.018013 0.000080 0.000000 -0.557960 0.004890 0.000000 -0.011909 0.012027 0.000000 -0.696032 0.019304 0.000000 -0.012000 0.000032 0.000000 -0.018000 0.000039 0.000000 -0.660025 -0.001060 0.000000 -0.012000 0.006000 0.000000 -0.012000 0.006000 0.000000 -0.534000 0.005984 0.000000 -0.012000 0.006000 0.000000 -0.012000 0.006000 0.000000 -1.086020 0.006010 0.000000 -0.624016 0.011720 0.000000 -1.224097 0.026893 0.000000 -0.054000 -0.035604 0.000000 -0.090000 -0.034332 0.000000 -0.006000 -0.018105 0.000000 -0.215949 -0.045616 0.000000 -0.215977 -0.023601 0.000000 -0.011593 -0.030129 0.000000 -0.541033 -0.041091 0.000000 -0.009724 -0.036043 0.000000 -0.702043 -0.051287 0.000000 -0.012000 -0.006065 0.000000 -0.018000 -0.000093 0.000000 -0.648199 -0.015466 0.000000 -0.012000 0.006000 0.000000 -0.012000 0.006000 0.000000 -0.510033 0.005999 0.000000 -0.012000 0.006000 0.000000 -0.012000 0.006000 0.000000 -1.049988 0.005985 0.000000 -0.588034 -0.001486 0.000000 -1.092157 -0.004921 0.000000 -0.054014 -0.012687 0.000000 -0.114016 -0.008039 0.000000 -0.006000 -0.011922 0.000000 -0.216085 -0.009860 0.000000 -0.192079 0.002725 0.000000 -0.006012 -0.005929 0.000000 -0.414241 0.006513 0.000000 -0.017822 0.012050 0.000000 -0.678237 0.021350 0.000000 -0.011987 0.006033 0.000000 -0.012003 0.000054 0.000000 -0.684654 0.014385 0.000000 -0.011999 0.006000 0.000000 -0.012000 0.006000 0.000000 -0.509978 0.005946 0.000000 -0.012000 0.006000 0.000000 -0.012000 0.006000 0.000000 -1.086033 0.006018 0.000000 -0.636044 0.015079 0.000000 -1.121940 0.029158 0.000000 -0.047999 -0.015054 0.000000 -0.102000 -0.012448 0.000000 -0.006000 -0.011997 0.000000 -0.185964 -0.011482 0.000000 -0.192011 -0.009539 0.000000 -0.006018 -0.000009 0.000000 -0.561028 0.002516 0.000000 -0.018000 0.000018 0.000000 -0.587885 0.002609 0.000000 -0.006000 -0.000000 0.000000 -0.012000 -0.000000 0.000000 -0.665285 0.001653 0.000000 -0.011973 0.006000 0.000000 -0.011959 0.006000 0.000000 -0.498091 0.006117 0.000000 -0.011955 0.006000 0.000000 -0.012002 0.012000 0.000000 -1.074041 0.005988 0.000000 -0.738128 0.000834 0.000000 -1.128030 0.000881 0.000000 -0.048001 -0.008386 0.000000 -0.096000 -0.011814 0.000000 -0.006000 -0.011980 0.000000 -0.186030 -0.011002 0.000000 -0.189009 -0.010259 0.000000 -0.017901 0.000000 0.000000 -0.558240 -0.004974 0.000000 -0.017968 -0.000031 0.000000 -0.606347 -0.002025 0.000000 -0.018000 -0.000000 0.000000 -0.012000 0.000000 0.000000 -0.612198 0.006915 0.000000 -0.006000 0.006000 0.000000 -0.006000 0.006000 0.000000 -0.498010 0.005935 0.000000 -0.006000 0.006000 0.000000 -0.006000 0.006000 0.000000 -1.035023 0.006003 0.000000 -0.711029 0.006329 0.000000 -1.098134 0.009993 0.000000 -0.042000 -0.009000 0.000000 -0.096001 -0.011152 0.000000 -0.005996 -0.006000 0.000000 -0.192013 -0.005589 0.000000 -0.213039 -0.005978 0.000000 -0.005982 -0.000000 0.000000 -0.590839 -0.006091 0.000000 -0.006000 -0.006005 0.000000 -0.551557 -0.011518 0.000000 -0.006000 0.000000 0.000000 -0.012000 0.000000 0.000000 -0.642177 0.005978 0.000000 -0.006000 0.006000 0.000000 -0.006000 0.006000 0.000000 -0.498011 0.006002 0.000000 -0.006000 0.006000 0.000000 -0.006000 0.006000 0.000000 -1.070993 0.006000 0.000000 -0.620534 0.005992 0.000000 -1.146076 0.008943 0.000000 -0.036001 -0.009000 0.000000 -0.035999 -0.005934 0.000000 -0.006000 -0.006000 0.000000 -0.143956 -0.006009 0.000000 -0.149961 -0.006008 0.000000 -0.006000 -0.006000 0.000000 -0.521981 -0.006000 0.000000 -0.006000 -0.006000 0.000000 -0.618009 -0.005725 0.000000 -0.006000 -0.000000 0.000000 -0.012000 0.000000 0.000000 -0.677768 0.006000 0.000000 -0.006000 0.006000 0.000000 -0.006000 0.006000 0.000000 -0.486010 0.006000 0.000000 -0.006000 0.006000 0.000000 -0.006000 0.006000 0.000000 -1.044023 0.006000 0.000000 -0.664696 0.006000 0.000000 -1.031825 0.009002 0.000000 -0.035999 -0.009000 0.000000 -0.096000 -0.006000 0.000000 -0.006000 -0.006000 0.000000 -0.119930 -0.006000 0.000000 -0.216006 -0.006000 0.000000 -0.006000 -0.006000 0.000000 -0.555232 -0.006000 0.000000 -0.006000 -0.006000 0.000000 -0.711335 -0.006011 0.000000 -0.000000 0.000000 0.000000 -0.012000 0.000000 0.000000 -0.635996 0.006000 0.000000 -0.006000 0.006000 0.000000 -0.006000 0.006000 0.000000 -0.473979 0.006000 0.000000 -0.006000 0.006000 0.000000 -0.006000 0.006000 0.000000 -1.032025 0.006000 0.000000 -0.657526 0.006000 0.000000 -1.008090 0.009000 0.000000 -0.036001 -0.009000 0.000000 -0.090000 -0.006000 0.000000 -0.006000 -0.006000 0.000000 -0.138018 -0.006000 0.000000 -0.192000 -0.006000 0.000000 -0.006000 -0.006000 0.000000 -0.675101 -0.006000 0.000000 -0.006000 -0.006000 0.000000 -0.623744 -0.006000 0.000000 -0.006000 0.000000 0.000000 -0.012000 0.000000 0.000000 -0.618500 0.006000 0.000000 -0.006000 0.006000 0.000000 -0.006000 0.006000 0.000000 -0.468015 0.006000 0.000000 -0.006000 0.006000 0.000000 -0.006000 0.006000 0.000000 -1.008041 0.006000 0.000000 -0.401042 0.006000 0.000000 -1.038090 0.009000 0.000000 -0.029999 -0.009000 0.000000 -0.084001 -0.006000 0.000000 -0.006000 -0.006000 0.000000 -0.096009 -0.006000 0.000000 -0.381010 -0.006000 0.000000 -0.006000 -0.006000 0.000000 -0.552272 -0.006000 0.000000 -0.006000 -0.006000 0.000000 -0.579168 -0.006000 0.000000 -0.006000 0.000000 0.000000 -0.006000 0.000000 0.000000 -0.629788 0.006000 0.000000 -0.006000 0.006000 0.000000 -0.006000 0.006000 0.000000 -0.450043 0.006000 0.000000 -0.006000 0.006000 0.000000 -0.006000 0.006000 0.000000 -1.026073 0.006000 0.000000 -0.565361 0.006000 0.000000 -1.110550 0.009000 0.000000 -0.030000 -0.009000 0.000000 -0.077999 -0.006000 0.000000 -0.006000 -0.006000 0.000000 -0.101983 -0.006000 0.000000 -0.245981 -0.006000 0.000000 -0.006000 -0.006000 0.000000 -0.536740 -0.006000 0.000000 -0.006000 -0.006000 0.000000 -0.765069 -0.006000 0.000000 -0.006000 0.000000 0.000000 -0.006000 0.000000 0.000000 -0.779492 0.006000 0.000000 -0.006000 0.006000 0.000000 -0.006000 0.006000 0.000000 -0.443922 0.006000 0.000000 -0.006000 0.006000 0.000000 -0.006000 0.006000 0.000000 -1.124937 0.006000 0.000000 -0.448972 0.006000 0.000000 -1.001893 0.009000 0.000000 -0.030000 -0.009000 0.000000 -0.078000 -0.006000 0.000000 -0.006000 -0.006000 0.000000 -0.107993 -0.006000 0.000000 -0.300035 -0.006000 0.000000 -0.006000 -0.006000 0.000000 -0.440876 -0.006000 0.000000 -0.006000 -0.006000 0.000000 -0.605997 -0.006000 0.000000 -0.006000 0.000000 0.000000 -0.006000 0.000000 0.000000 -0.630051 0.006000 0.000000 -0.006000 0.006000 0.000000 -0.006000 0.006000 0.000000 -0.438007 0.006000 0.000000 -0.006000 0.006000 0.000000 -0.006000 0.006000 0.000000 -0.966105 0.006000 0.000000 -0.561552 0.006000 0.000000 -1.068336 0.009000 0.000000 -0.030000 -0.009000 0.000000 -0.072001 -0.006000 0.000000 -0.006000 -0.006000 0.000000 -0.132007 -0.006000 0.000000 -0.278965 -0.006000 0.000000 -0.006000 -0.006000 0.000000 -0.513092 -0.006000 0.000000 -0.006000 -0.006000 0.000000 -0.705139 -0.006000 0.000000 -0.006000 0.000000 0.000000 -0.006000 0.000000 0.000000 -0.688091 0.006000 0.000000 -0.006000 0.006000 0.000000 -0.006000 0.006000 0.000000 -0.426170 0.006000 0.000000 -0.006000 0.006000 0.000000 -0.006000 0.006000 0.000000 -1.077177 0.006000 0.000000 -0.424927 0.006000 0.000000 -1.031803 0.009000 0.000000 -0.024000 -0.009000 0.000000 -0.071999 -0.006000 0.000000 -0.006000 -0.006000 0.000000 -0.101990 -0.006000 0.000000 -0.297112 -0.006000 0.000000 -0.006000 -0.006000 0.000000 -0.581932 -0.006000 0.000000 -0.006000 -0.006000 0.000000 -0.621212 -0.006000 0.000000 -0.006000 0.000000 0.000000 -0.006000 0.000000 0.000000 -0.557709 0.006000 0.000000 -0.006000 0.006000 0.000000 -0.006000 0.006000 0.000000 -0.425951 0.006000 0.000000 -0.006000 0.006000 0.000000 -0.006000 0.006000 0.000000 -0.972157 0.006000 0.000000 -0.483865 0.006000 0.000000 -1.044063 0.009000 0.000000 -0.024000 -0.009000 0.000000 -0.072001 -0.006000 0.000000 -0.006000 -0.006000 0.000000 -0.126002 -0.006000 0.000000 -0.402015 -0.006000 0.000000 -0.006000 -0.006000 0.000000 -0.588264 -0.006000 0.000000 -0.006000 -0.006000 0.000000 -0.657270 -0.006000 0.000000 -0.006000 0.000000 0.000000 -0.006000 0.000000 0.000000 -0.645004 0.006000 0.000000 -0.006000 0.006000 0.000000 -0.006000 0.006000 0.000000 -0.408018 0.006000 0.000000 -0.006000 0.006000 0.000000 -0.006000 0.006000 0.000000 -1.047058 0.006000 0.000000 -0.469006 0.006000 0.000000 -1.032406 0.009000 0.000000 -0.024000 -0.009000 0.000000 -0.072000 -0.006000 0.000000 -0.006000 -0.006000 0.000000 -0.060012 -0.006000 0.000000 -0.480326 -0.006000 0.000000 -0.006000 -0.006000 0.000000 -0.611859 -0.006000 0.000000 -0.006000 -0.006000 0.000000 -0.627231 -0.006000 0.000000 -0.006000 0.000000 0.000000 -0.006000 0.000000 0.000000 -0.528696 0.006000 0.000000 -0.006000 0.006000 0.000000 -0.006000 0.006000 0.000000 -0.408042 0.006000 0.000000 -0.006000 0.006000 0.000000 -0.006000 0.006000 0.000000 -1.040440 0.006000 0.000000 -0.315279 0.006000 0.000000 -1.042668 0.009000 0.000000 -0.024000 -0.009000 0.000000 -0.072002 -0.006000 0.000000 -0.006000 -0.006000 0.000000 -0.060003 -0.006000 0.000000 -0.371872 -0.006000 0.000000 -0.006000 -0.006000 0.000000 -0.621452 -0.006000 0.000000 -0.006000 -0.006000 0.000000 -0.567883 -0.006000 0.000000 -0.006000 0.000000 0.000000 -0.006000 0.000000 0.000000 -0.563079 0.006000 0.000000 -0.006000 0.006000 0.000000 -0.006000 0.006000 0.000000 -0.402048 0.006000 0.000000 -0.006000 0.006000 0.000000 -0.006000 0.006000 0.000000 -1.073998 0.006000 0.000000 -0.495008 0.006000 0.000000 -0.971981 0.009000 0.000000 -0.024000 -0.009000 0.000000 -0.072002 -0.006000 0.000000 -0.006000 -0.006000 0.000000 -0.102008 -0.006000 0.000000 -0.324047 -0.006000 0.000000 -0.006000 -0.006000 0.000000 -0.579119 -0.006000 0.000000 -0.006000 -0.006000 0.000000 -0.613719 -0.006000 0.000000 -0.006000 0.000000 0.000000 -0.006000 0.000000 0.000000 -0.566028 0.006000 0.000000 -0.006000 0.006000 0.000000 -0.000000 0.006000 0.000000 -0.389972 0.006000 0.000000 -0.006000 0.006000 0.000000 -0.000000 0.006000 0.000000 -0.979271 0.006000 0.000000 -0.469439 0.006000 0.000000 -0.926655 0.009000 0.000000 -0.024000 -0.009000 0.000000 -0.065996 -0.006000 0.000000 -0.006000 -0.006000 0.000000 0.048004 -0.006000 0.000000 -0.302964 -0.006000 0.000000 -0.006000 -0.006000 0.000000 -0.608834 -0.006000 0.000000 -0.006000 -0.006000 0.000000 -0.657760 -0.006000 0.000000 -0.006000 0.000000 0.000000 -0.006000 0.000000 0.000000 -0.407603 0.006000 0.000000 -0.000000 0.006000 0.000000 -0.000000 0.006000 0.000000 -0.384110 0.006000 0.000000 0.000000 0.006000 0.000000 0.000000 0.006000 0.000000 -0.948149 0.006001 0.000000 -0.380736 0.006000 0.000000 -0.912884 0.009001 0.000000 -0.018000 -0.009000 0.000000 -0.048004 -0.006000 0.000000 -0.006000 -0.006000 0.000000 0.029969 -0.006000 0.000000 -0.070783 -0.006000 0.000000 -0.006000 -0.006000 0.000000 -0.555169 -0.006000 0.000000 -0.006000 -0.006000 0.000000 -0.687386 -0.005995 0.000000 -0.006000 0.000000 0.000000 -0.006000 0.000000 0.000000 -0.372091 0.005991 0.000000 -0.000000 0.006000 0.000000 -0.000000 0.006000 0.000000 -0.378025 0.006000 0.000000 0.000000 0.006000 0.000000 0.000000 0.006000 0.000000 -0.840300 0.005976 0.000000 -0.283629 0.005998 0.000000 -0.942145 0.008960 0.000000 -0.018000 -0.009000 0.000000 -0.048002 -0.006000 0.000000 -0.006000 -0.006000 0.000000 -0.078144 -0.006000 0.000000 -0.394713 -0.006032 0.000000 -0.006000 -0.006000 0.000000 -0.630474 -0.005968 0.000000 -0.006000 -0.006000 0.000000 -0.690795 -0.006108 0.000000 -0.006000 0.000000 0.000000 -0.006000 0.000000 0.000000 -0.345690 0.006193 0.000000 -0.000000 0.006000 0.000000 -0.000000 0.006000 0.000000 -0.510211 0.006000 0.000000 -0.000000 0.006000 0.000000 0.000000 0.006000 0.000000 -0.865043 0.006538 0.000000 0.250733 0.006079 0.000000 -0.893492 0.009787 0.000000 -0.018000 -0.009000 0.000000 -0.030005 -0.011929 0.000000 -0.005962 -0.012000 0.000000 0.065930 -0.006018 0.000000 -0.187336 -0.006354 0.000000 -0.005940 0.006000 0.000000 -0.540620 -0.007255 0.000000 -0.000000 -0.006000 0.000000 -0.605787 -0.004956 0.000000 -0.006000 -0.000000 0.000000 -0.006000 0.000000 0.000000 -0.994157 0.002715 0.000000 -0.000000 0.006000 0.000000 -0.000000 0.006000 0.000000 -0.329986 0.005960 0.000000 0.000000 0.006000 0.000000 -0.000000 0.006000 0.000000 -0.723489 -0.003492 0.000000 0.364116 0.004107 0.000000 -0.831508 -0.001154 0.000000 -0.012000 -0.009000 0.000000 -0.030019 -0.017045 0.000000 0.000026 -0.006000 0.000000 0.104838 -0.011103 0.000000 -0.282158 0.002149 0.000000 -0.005868 0.000000 0.000000 -0.523098 0.005897 0.000000 -0.000000 -0.006002 0.000000 -0.775695 -0.003849 0.000000 -0.006000 0.000001 0.000000 -0.006000 0.000000 0.000000 -0.815366 0.032379 0.000000 -0.000000 0.006000 0.000000 -0.000000 0.006000 0.000000 -0.312592 0.007716 0.000000 0.006000 0.005997 0.000000 -0.000000 0.006000 0.000000 -0.032098 0.088917 0.000000 0.323495 0.037696 0.000000 -0.652308 0.085002 0.000000 -0.012006 -0.009062 0.000000 -0.030001 -0.013116 0.000000 0.000023 -0.017999 0.000000 0.108341 -0.035116 0.000000 -0.343528 -0.051441 0.000000 0.002033 -0.023983 0.000000 -0.619304 -0.078163 0.000000 0.002884 -0.071974 0.000000 -0.644922 -0.075806 0.000000 -0.000156 -0.060001 0.000000 0.005663 -0.029832 0.000000 -0.435708 -0.028401 0.000000 -0.000021 -0.174002 0.000000 0.017684 -0.125773 0.000000 -0.328655 -0.434133 0.000000 -0.202671 -0.267392 0.000000 0.077071 -0.229677 0.000000 0.803883 -0.118111 0.000000 1.108901 0.010561 0.000000 1.103902 0.438099 0.000000 0.043789 0.048334 0.000000 -0.006808 0.041980 0.000000 0.006097 0.065999 0.000000 0.146772 0.184208 0.000000 -0.617017 0.365475 0.000000 0.002823 0.335985 0.000000 -2.108652 0.922096 0.000000 0.021597 0.788667 0.000000 -2.943826 0.766469 0.000000 0.045355 0.604500 0.000000 0.001253 0.606016 0.000000 -0.807616 0.359565 0.000000 0.039876 0.275145 0.000000 0.019978 0.300296 0.000000 -0.283672 0.314451 0.000000 -0.313183 0.318839 0.000000 0.078396 0.385118 0.000000 0.547463 0.599081 0.000000 1.107582 1.418088 0.000000 3.761110 1.422283 0.000000 0.258263 -1.378423 0.000000 0.119668 -1.205934 0.000000 0.000685 -1.236044 0.000000 0.186598 -1.513431 0.000000 -0.473875 -1.399538 0.000000 0.274470 -1.146537 0.000000 -1.042705 -1.599819 0.000000 0.356871 -1.394617 0.000000 -1.103050 -1.965834 0.000000 0.254056 -2.360368 0.000000 0.487912 -2.336920 0.000000 -1.521692 -2.381040 0.000000 0.316734 -2.197269 0.000000 0.192293 -1.805587 0.000000 -0.617501 -1.871985 0.000000 -1.444695 -0.712273 0.000000 0.844646 -1.422666 0.000000 -0.977978 -1.910884 0.000000 0.959929 2.986133 0.000000 2.513862 1.351019 0.000000 -0.010584 -9.711135 0.000000 -0.038460 -9.610739 0.000000 -0.581426 -9.734808 0.000000 0.376225 -4.656157 0.000000 0.024433 -4.410628 0.000000 -1.258388 -4.590672 0.000000 2.666322 -1.953428 0.000000 -1.727308 -0.843568 0.000000 4.611949 -3.845152 0.000000 -3.536268 -1.275990 0.000000 1.919843 0.313853 0.000000 0.800672 0.028648 0.000000 -2.529911 1.578304 0.000000 2.754832 2.103749 0.000000 0.088531 2.704563 0.000000 -1.191455 3.692534 0.000000 2.142073 1.925918 0.000000 0.625260 -0.223603 0.000000 3.090781 0.528357 0.000000 6.392579 -3.473355 0.000000 -0.015617 -11.463270 0.000000 -0.044273 -11.359107 0.000000 -0.413775 -8.757805 0.000000 0.549869 -5.932985 0.000000 -0.205484 -8.989026 0.000000 -1.520073 -4.140721 0.000000 1.040284 -7.176604 0.000000 4.863292 4.935572 0.000000 1.095000 -3.970548 0.000000 -1.424297 -1.793677 0.000000 -0.046057 1.774763 0.000000 4.338734 -2.566520 0.000000 1.721158 0.959942 0.000000 0.725467 2.287814 0.000000 2.676987 -4.204467 0.000000 -3.841651 1.694175 0.000000 -2.331200 4.104962 0.000000 -0.661987 -4.136948 0.000000 -0.306565 1.843854 0.000000 6.647057 3.978400 0.000000 -0.019696 -11.205235 0.000000 -0.195384 -11.161859 0.000000 -0.300282 -8.665225 0.000000 0.544537 -5.326354 0.000000 -0.138036 -8.622367 0.000000 -1.049317 -2.840699 0.000000 1.459652 -7.751612 0.000000 -0.081719 -4.149163 0.000000 1.794048 -4.414995 0.000000 -2.824297 -5.435074 0.000000 -1.086847 -1.965461 0.000000 4.175783 -4.268898 0.000000 -1.206345 -6.847742 0.000000 1.947648 -11.591689 0.000000 -2.607280 -4.665683 0.000000 1.318640 -6.708147 0.000000 -1.156695 -4.915135 0.000000 -0.806963 -28.330167 0.000000 -4.993421 -5.212934 0.000000 4.930925 -18.712451 0.000000 -0.014321 -11.235478 0.000000 0.141558 -11.080378 0.000000 -0.421632 -8.934357 0.000000 0.521549 -4.651930 0.000000 0.153954 -8.879523 0.000000 -1.123808 -3.118810 0.000000 0.936161 -7.131315 0.000000 -0.298298 -4.252220 0.000000 2.269757 -5.460379 0.000000 1.469258 -4.134987 0.000000 -0.144193 -3.471392 0.000000 3.285205 -11.071562 0.000000 4.142279 -5.768221 0.000000 3.955108 -12.448499 0.000000 -1.915967 -2.283464 0.000000 -2.704566 -7.607557 0.000000 -1.585104 -19.468949 0.000000 -2.944806 -12.629129 0.000000 13.851954 -11.262586 0.000000 9.304920 -1.387894 0.000000 -0.010264 -11.391358 0.000000 0.056677 -11.287426 0.000000 -0.340786 -8.273948 0.000000 0.704332 -5.678725 0.000000 0.074714 -8.690651 0.000000 -0.827387 -3.389238 0.000000 2.033086 -5.160989 0.000000 0.381757 -3.319850 0.000000 1.857673 -3.070312 0.000000 -3.019694 -5.460430 0.000000 -2.066694 -2.525745 0.000000 3.572950 -8.578276 0.000000 2.196252 -3.390028 0.000000 0.922939 -13.328489 0.000000 4.094275 -0.897772 0.000000 -2.643986 -6.490844 0.000000 -2.653450 -4.024037 0.000000 -3.788860 -10.588754 0.000000 8.289900 4.198337 0.000000 6.552086 -20.795453 0.00000