<VTKFile type="UnstructuredGrid" version="0.1" byte_order="LittleEndian">
  <UnstructuredGrid>
    <Piece NumberOfPoints="2000" NumberOfCells="0">
      <Points>
        <DataArray name="Position" type="Float32" NumberOfComponents="3" format="ascii">
-0.002694 -0.001619 0.000000 -0.002694 0.998921 0.000000 -0.002694 1.998921 0.000000 -0.002694 2.998921 0.000000 -0.003606 3.998922 0.000000 -0.003740 4.998922 0.000000 -0.003725 5.998922 0.000000 -0.003761 6.998922 0.000000 -0.002685 7.998923 0.000000 -0.003760 9.000000 0.000000 -0.002681 10.000001 0.000000 -0.002680 11.001077 0.000000 -0.002682 12.001078 0.000000 -0.002682 13.001078 0.000000 -0.002682 14.001078 0.000000 -0.002676 15.001078 0.000000 -0.002676 16.001079 0.000000 -0.002676 17.001079 0.000000 -0.002676 18.001079 0.000000 -0.002676 19.001619 0.000000 0.998918 -0.001619 0.000000 0.998918 0.998921 0.000000 0.998506 1.998921 0.000000 0.998242 2.998921 0.000000 0.997762 3.998922 0.000000 0.996806 4.998922 0.000000 0.996876 5.998922 0.000000 0.997847 6.998922 0.000000 0.998207 7.998923 0.000000 0.997848 9.000000 0.000000 0.998173 10.000001 0.000000 0.998429 11.001077 0.000000 0.998912 12.001078 0.000000 0.998912 13.001078 0.000000 0.998912 14.001078 0.000000 0.998909 15.001078 0.000000 0.998909 16.001079 0.000000 0.998909 17.001079 0.000000 0.998234 18.001079 0.000000 0.998026 19.001619 0.000000 1.998921 -0.001619 0.000000 1.998921 0.998921 0.000000 1.998917 1.998921 0.000000 1.998246 2.998921 0.000000 1.998228 3.998922 0.000000 1.997839 4.998922 0.000000 1.997832 5.998922 0.000000 1.997851 6.998922 0.000000 1.998208 7.998923 0.000000 1.997851 9.000000 0.000000 1.998198 10.000001 0.000000 1.998459 11.001077 0.000000 1.998921 12.001078 0.000000 1.998921 13.001078 0.000000 1.998921 14.001078 0.000000 1.998921 15.001078 0.000000 1.998921 16.001079 0.000000 1.998921 17.001079 0.000000 1.998244 18.001079 0.000000 1.998040 19.001619 0.000000 2.998921 -0.001619 0.000000 2.998921 0.998921 0.000000 2.998920 1.998921 0.000000 2.998252 2.998921 0.000000 2.998263 3.998921 0.000000 2.997847 4.998922 0.000000 2.997849 5.998922 0.000000 2.997855 6.998922 0.000000 2.998210 7.998923 0.000000 2.997855 9.000000 0.000000 2.998202 10.000001 0.000000 2.998481 11.001077 0.000000 2.998921 12.001078 0.000000 2.998921 13.001078 0.000000 2.998921 14.001078 0.000000 2.998921 15.001078 0.000000 2.998921 16.001079 0.000000 2.998921 17.001079 0.000000 2.998261 18.001079 0.000000 2.998051 19.001619 0.000000 3.998921 -0.001619 0.000000 3.998921 0.998649 0.000000 3.998920 1.998753 0.000000 3.998320 2.998898 0.000000 3.998280 3.998923 0.000000 3.997849 4.998924 0.000000 3.997854 5.998946 0.000000 3.998223 6.999093 0.000000 3.998210 7.999194 0.000000 3.998474 9.000000 0.000000 3.998221 10.000003 0.000000 3.998504 11.000897 0.000000 3.998921 12.001078 0.000000 3.998921 13.001078 0.000000 3.998921 14.001078 0.000000 3.998921 15.001079 0.000000 3.998921 16.001079 0.000000 3.998921 17.001080 0.000000 3.998269 18.001259 0.000000 3.998062 19.001619 0.000000 4.998922 -0.005840 0.000000 4.998922 0.996752 0.000000 4.998920 1.996773 0.000000 4.998915 2.996775 0.000000 4.998916 3.997831 0.000000 4.997850 4.997845 0.000000 4.997885 5.997854 0.000000 4.998251 6.997864 0.000000 4.998247 7.998587 0.000000 4.998494 8.998920 0.000000 4.998223 9.999251 0.000000 4.998504 10.999997 0.000000 4.998922 12.001078 0.000000 4.998922 13.001078 0.000000 4.998922 14.001078 0.000000 4.998922 15.001078 0.000000 4.998922 16.001079 0.000000 4.998922 17.001079 0.000000 4.998289 18.001079 0.000000 4.998087 19.001619 0.000000 5.998923 -0.002687 0.000000 5.998923 0.997882 0.000000 5.998923 1.998647 0.000000 5.998923 2.998917 0.000000 5.998923 3.998923 0.000000 5.997856 4.998922 0.000000 5.997890 5.999196 0.000000 5.998913 6.999732 0.000000 5.998563 7.999965 0.000000 5.998696 9.000002 0.000000 5.998239 10.000273 0.000000 5.998564 11.000964 0.000000 5.998922 12.001078 0.000000 5.998922 13.001078 0.000000 5.998922 14.001078 0.000000 5.998922 15.001079 0.000000 5.998922 16.001079 0.000000 5.998922 17.001080 0.000000 5.998290 18.001192 0.000000 5.998480 19.001619 0.000000 6.998923 -0.001619 0.000000 6.998923 0.998624 0.000000 6.998923 1.998714 0.000000 6.998923 2.998921 0.000000 6.998923 3.998922 0.000000 6.998676 4.998922 0.000000 6.998524 5.998922 0.000000 6.998918 6.999126 0.000000 6.998568 7.999220 0.000000 6.998912 8.999999 0.000000 6.998546 10.000001 0.000000 6.998673 11.001077 0.000000 6.998922 12.001078 0.000000 6.998922 13.001078 0.000000 6.998922 14.001078 0.000000 6.998922 15.001078 0.000000 6.998922 16.001079 0.000000 6.998922 17.001079 0.000000 6.998290 18.001079 0.000000 6.998482 19.001619 0.000000 7.998923 -0.001619 0.000000 7.998923 0.998921 0.000000 7.998923 1.998921 0.000000 7.998923 2.998921 0.000000 7.998924 3.998921 0.000000 7.998912 4.998922 0.000000 7.998912 5.998922 0.000000 7.998919 6.998922 0.000000 7.998571 7.998923 0.000000 7.998918 8.999999 0.000000 7.998554 10.000001 0.000000 7.998684 11.001077 0.000000 7.998922 12.001078 0.000000 7.998922 13.001078 0.000000 7.998922 14.001078 0.000000 7.998922 15.001078 0.000000 7.998922 16.001079 0.000000 7.998922 17.001079 0.000000 7.998294 18.001079 0.000000 7.998485 19.001619 0.000000 8.998923 -0.001619 0.000000 8.998923 0.998921 0.000000 8.998923 1.998921 0.000000 8.998923 2.998921 0.000000 8.998924 3.998922 0.000000 8.998919 4.998922 0.000000 8.998919 5.998922 0.000000 8.998919 6.998922 0.000000 8.998575 7.998923 0.000000 8.998919 9.000000 0.000000 8.998559 10.000001 0.000000 8.998688 11.001077 0.000000 8.998923 12.001078 0.000000 8.998923 13.001078 0.000000 8.998923 14.001078 0.000000 8.998923 15.001078 0.000000 8.998923 16.001079 0.000000 8.998923 17.001079 0.000000 8.998324 18.001079 0.000000 8.998487 19.001619 0.000000 9.998924 -0.001619 0.000000 9.998924 0.998921 0.000000 9.998924 1.998921 0.000000 9.998924 2.998921 0.000000 9.998924 3.998922 0.000000 9.998920 4.998922 0.000000 9.998921 5.998922 0.000000 9.998922 6.998922 0.000000 9.998910 7.998923 0.000000 9.998919 9.000000 0.000000 9.998561 10.000001 0.000000 9.998690 11.001077 0.000000 9.998923 12.001078 0.000000 9.998923 13.001078 0.000000 9.998923 14.001078 0.000000 9.998923 15.001078 0.000000 9.998923 16.001079 0.000000 9.998923 17.001079 0.000000 9.998582 18.001079 0.000000 9.998491 19.001619 0.000000 10.998924 -0.001619 0.000000 10.998924 0.998921 0.000000 10.998924 1.998921 0.000000 10.998924 2.998921 0.000000 10.998925 3.998922 0.000000 10.998927 4.998922 0.000000 10.998927 5.998922 0.000000 10.998925 6.998922 0.000000 10.998925 7.998923 0.000000 10.998925 9.000000 0.000000 10.998561 10.000001 0.000000 10.998699 11.001077 0.000000 10.998923 12.001078 0.000000 10.998923 13.001078 0.000000 10.998923 14.001078 0.000000 10.998923 15.001078 0.000000 10.998923 16.001079 0.000000 10.998923 17.001079 0.000000 10.998583 18.001079 0.000000 10.998493 19.001619 0.000000 11.998924 -0.001619 0.000000 11.998924 0.998921 0.000000 11.998924 1.998921 0.000000 11.998924 2.998921 0.000000 11.998925 3.998922 0.000000 11.998927 4.998922 0.000000 11.998927 5.998922 0.000000 11.998925 6.998922 0.000000 11.998925 7.998923 0.000000 11.998925 9.000000 0.000000 11.998563 10.000001 0.000000 11.998701 11.001077 0.000000 11.998924 12.001078 0.000000 11.998924 13.001078 0.000000 11.998924 14.001078 0.000000 11.998924 15.001078 0.000000 11.998924 16.001079 0.000000 11.998924 17.001079 0.000000 11.998590 18.001079 0.000000 11.998503 19.001619 0.000000 12.998925 -0.001619 0.000000 12.998925 0.998921 0.000000 12.998925 1.998921 0.000000 12.998925 2.998921 0.000000 12.998925 3.998922 0.000000 12.998927 4.998922 0.000000 12.998927 5.998922 0.000000 12.998926 6.998922 0.000000 12.998926 7.998923 0.000000 12.998926 9.000000 0.000000 12.998908 10.000001 0.000000 12.998906 11.001077 0.000000 12.998924 12.001078 0.000000 12.998924 13.001078 0.000000 12.998924 14.001078 0.000000 12.998924 15.001078 0.000000 12.998924 16.001079 0.000000 12.998924 17.001079 0.000000 12.998592 18.001079 0.000000 12.998505 19.001619 0.000000 13.998925 -0.001619 0.000000 13.998925 0.998921 0.000000 13.998925 1.998921 0.000000 13.998925 2.998921 0.000000 13.998925 3.998922 0.000000 13.998927 4.998922 0.000000 13.998927 5.998922 0.000000 13.998926 6.998922 0.000000 13.998926 7.998923 0.000000 13.998926 9.000000 0.000000 13.998918 10.000001 0.000000 13.998916 11.001077 0.000000 13.998924 12.001078 0.000000 13.998924 13.001078 0.000000 13.998924 14.001078 0.000000 13.998924 15.001078 0.000000 13.998924 16.001079 0.000000 13.998924 17.001079 0.000000 13.998594 18.001079 0.000000 13.998907 19.001619 0.000000 14.998925 -0.001619 0.000000 14.998925 0.998921 0.000000 14.998925 1.998921 0.000000 14.998925 2.998921 0.000000 14.998926 3.998922 0.000000 14.998928 4.998922 0.000000 14.998928 5.998922 0.000000 14.998926 6.998922 0.000000 14.998926 7.998923 0.000000 14.998926 9.000000 0.000000 14.998918 10.000001 0.000000 14.998918 11.001077 0.000000 14.998925 12.001078 0.000000 14.998925 13.001078 0.000000 14.998925 14.001078 0.000000 14.998925 15.001078 0.000000 14.998925 16.001079 0.000000 14.998925 17.001079 0.000000 14.998596 18.001079 0.000000 14.998919 19.001619 0.000000 15.998925 -0.001619 0.000000 15.998925 0.998921 0.000000 15.998925 1.998921 0.000000 15.998925 2.998921 0.000000 15.998926 3.998922 0.000000 15.998928 4.998922 0.000000 15.998928 5.998922 0.000000 15.998927 6.998922 0.000000 15.998927 7.998923 0.000000 15.998927 9.000000 0.000000 15.998921 10.000001 0.000000 15.998921 11.001077 0.000000 15.998926 12.001078 0.000000 15.998926 13.001078 0.000000 15.998926 14.001078 0.000000 15.998925 15.001078 0.000000 15.998925 16.001079 0.000000 15.998925 17.001079 0.000000 15.998621 18.001079 0.000000 15.998919 19.001619 0.000000 16.998926 -0.001619 0.000000 16.998926 0.998921 0.000000 16.998926 1.998921 0.000000 16.998926 2.998921 0.000000 16.998926 3.998922 0.000000 16.998928 4.998922 0.000000 16.998928 5.998922 0.000000 16.998927 6.998922 0.000000 16.998927 7.998923
[...]
      <PointData Vectors="vector">
        <DataArray type="Float32" Name="Velocity" NumberOfComponents="3" format="ascii">
-0.015000 -0.009000 0.000000 -0.015000 -0.006000 0.000000 -0.015000 -0.006000 0.000000 -0.015000 -0.006000 0.000000 -0.021000 -0.006000 0.000000 -0.021000 -0.006000 0.000000 -0.021000 -0.006000 0.000000 -0.021000 -0.006000 0.000000 -0.015000 -0.006000 0.000000 -0.021000 0.000000 0.000000 -0.015000 0.000000 0.000000 -0.015000 0.006000 0.000000 -0.015000 0.006000 0.000000 -0.015000 0.006000 0.000000 -0.015000 0.006000 0.000000 -0.015000 0.006000 0.000000 -0.015000 0.006000 0.000000 -0.015000 0.006000 0.000000 -0.015000 0.006000 0.000000 -0.015000 0.009000 0.000000 -0.006000 -0.009000 0.000000 -0.006000 -0.006000 0.000000 -0.018000 -0.006000 0.000000 -0.018000 -0.006000 0.000000 -0.012000 -0.006000 0.000000 -0.018000 -0.006000 0.000000 -0.018000 -0.006000 0.000000 -0.012000 -0.006000 0.000000 -0.018000 -0.006000 0.000000 -0.012000 0.000000 0.000000 -0.018000 0.000000 0.000000 -0.018000 0.006000 0.000000 -0.006000 0.006000 0.000000 -0.006000 0.006000 0.000000 -0.006000 0.006000 0.000000 -0.006000 0.006000 0.000000 -0.006000 0.006000 0.000000 -0.006000 0.006000 0.000000 -0.018000 0.006000 0.000000 -0.018000 0.009000 0.000000 -0.006000 -0.009000 0.000000 -0.006000 -0.006000 0.000000 -0.006000 -0.006000 0.000000 -0.018000 -0.006000 0.000000 -0.018000 -0.006000 0.000000 -0.012000 -0.006000 0.000000 -0.012000 -0.006000 0.000000 -0.012000 -0.006000 0.000000 -0.018000 -0.006000 0.000000 -0.012000 0.000000 0.000000 -0.018000 0.000000 0.000000 -0.018000 0.006000 0.000000 -0.006000 0.006000 0.000000 -0.006000 0.006000 0.000000 -0.006000 0.006000 0.000000 -0.006000 0.006000 0.000000 -0.006000 0.006000 0.000000 -0.006000 0.006000 0.000000 -0.018000 0.006000 0.000000 -0.018000 0.009000 0.000000 -0.006000 -0.009000 0.000000 -0.006000 -0.006000 0.000000 -0.006000 -0.006000 0.000000 -0.018000 -0.006000 0.000000 -0.018000 -0.006000 0.000000 -0.012000 -0.006000 0.000000 -0.012000 -0.006000 0.000000 -0.012000 -0.006000 0.000000 -0.018000 -0.006000 0.000000 -0.012000 -0.000000 0.000000 -0.018000 -0.000000 0.000000 -0.018000 0.006000 0.000000 -0.006000 0.006000 0.000000 -0.006000 0.006000 0.000000 -0.006000 0.006000 0.000000 -0.006000 0.006000 0.000000 -0.006000 0.006000 0.000000 -0.006000 0.006000 0.000000 -0.018000 0.006000 0.000000 -0.018000 0.009000 0.000000 -0.006000 -0.009000 0.000000 -0.006000 -0.012000 0.000000 -0.005998 -0.011979 0.000000 -0.018001 -0.011929 0.000000 -0.017990 -0.005972 0.000000 -0.012011 -0.006000 0.000000 -0.012007 0.000001 0.000000 -0.017993 0.000009 0.000000 -0.018000 0.000000 0.000000 -0.018000 0.000010 0.000000 -0.018000 0.000034 0.000000 -0.018000 0.000041 0.000000 -0.006000 0.006000 0.000000 -0.006000 0.006000 0.000000 -0.006000 0.006000 0.000000 -0.006000 0.006000 0.000000 -0.006000 0.006000 0.000000 -0.005998 0.006000 0.000000 -0.018002 0.012000 0.000000 -0.018000 0.009000 0.000000 -0.006000 -0.033000 0.000000 -0.006000 -0.018000 0.000000 -0.006000 -0.018020 0.000000 -0.006000 -0.018071 0.000000 -0.006000 -0.012028 0.000000 -0.012001 -0.012001 0.000000 -0.012000 -0.012001 0.000000 -0.018000 -0.012042 0.000000 -0.018000 -0.012044 0.000000 -0.018000 -0.006031 0.000000 -0.018000 -0.000078 0.000000 -0.018000 -0.000092 0.000000 -0.006000 0.006000 0.000000 -0.006000 0.006000 0.000000 -0.006000 0.006000 0.000000 -0.006000 0.006000 0.000000 -0.006000 0.006000 0.000000 -0.006000 0.006000 0.000000 -0.018000 0.006000 0.000000 -0.018000 0.009000 0.000000 -0.006000 -0.015000 0.000000 -0.006000 -0.012000 0.000000 -0.006000 -0.011981 0.000000 -0.006000 -0.005929 0.000000 -0.005995 -0.005972 0.000000 -0.012005 -0.006000 0.000000 -0.012000 0.000001 0.000000 -0.005999 -0.005949 0.000000 -0.012001 0.000091 0.000000 -0.017999 0.000021 0.000000 -0.018001 0.006043 0.000000 -0.018001 0.000051 0.000000 -0.005999 0.006000 0.000000 -0.006000 0.006000 0.000000 -0.006000 0.006000 0.000000 -0.006000 0.006000 0.000000 -0.006000 0.006000 0.000000 -0.005998 0.006000 0.000000 -0.018002 0.012000 0.000000 -0.012000 0.009000 0.000000 -0.006000 -0.009000 0.000000 -0.006000 -0.012000 0.000000 -0.006000 -0.011999 0.000000 -0.006000 -0.006000 0.000000 -0.006000 -0.006000 0.000000 -0.018000 -0.006000 0.000000 -0.018000 -0.006000 0.000000 -0.006000 -0.000017 0.000000 -0.012000 -0.000048 0.000000 -0.006000 -0.000000 0.000000 -0.012000 -0.000000 0.000000 -0.012000 0.006000 0.000000 -0.006000 0.006000 0.000000 -0.006000 0.006000 0.000000 -0.006000 0.006000 0.000000 -0.006000 0.006000 0.000000 -0.006000 0.006000 0.000000 -0.006000 0.006000 0.000000 -0.018000 0.006000 0.000000 -0.012000 0.009000 0.000000 -0.006000 -0.009000 0.000000 -0.006000 -0.006000 0.000000 -0.006000 -0.006000 0.000000 -0.006000 -0.006000 0.000000 -0.006000 -0.006000 0.000000 -0.006000 -0.006000 0.000000 -0.006000 -0.006000 0.000000 -0.006000 -0.006000 0.000000 -0.012000 -0.006000 0.000000 -0.006000 0.000000 0.000000 -0.012000 0.000000 0.000000 -0.012000 0.006000 0.000000 -0.006000 0.006000 0.000000 -0.006000 0.006000 0.000000 -0.006000 0.006000 0.000000 -0.006000 0.006000 0.000000 -0.006000 0.006000 0.000000 -0.006000 0.006000 0.000000 -0.018000 0.006000 0.000000 -0.012000 0.009000 0.000000 -0.006000 -0.009000 0.000000 -0.006000 -0.006000 0.000000 -0.006000 -0.006000 0.000000 -0.006000 -0.006000 0.000000 -0.006000 -0.006000 0.000000 -0.006000 -0.006000 0.000000 -0.006000 -0.006000 0.000000 -0.006000 -0.006000 0.000000 -0.012000 -0.006000 0.000000 -0.006000 0.000000 0.000000 -0.012000 0.000000 0.000000 -0.012000 0.006000 0.000000 -0.006000 0.006000 0.000000 -0.006000 0.006000 0.000000 -0.006000 0.006000 0.000000 -0.006000 0.006000 0.000000 -0.006000 0.006000 0.000000 -0.006000 0.006000 0.000000 -0.018000 0.006000 0.000000 -0.012000 0.009000 0.000000 -0.006000 -0.009000 0.000000 -0.006000 -0.006000 0.000000 -0.006000 -0.006000 0.000000 -0.006000 -0.006000 0.000000 -0.006000 -0.006000 0.000000 -0.006000 -0.006000 0.000000 -0.006000 -0.006000 0.000000 -0.006000 -0.006000 0.000000 -0.006000 -0.006000 0.000000 -0.006000 -0.000000 0.000000 -0.012000 0.000000 0.000000 -0.012000 0.006000 0.000000 -0.006000 0.006000 0.000000 -0.006000 0.006000 0.000000 -0.006000 0.006000 0.000000 -0.006000 0.006000 0.000000 -0.006000 0.006000 0.000000 -0.006000 0.006000 0.000000 -0.012000 0.006000 0.000000 -0.012000 0.009000 0.000000 -0.006000 -0.009000 0.000000 -0.006000 -0.006000 0.000000 -0.006000 -0.006000 0.000000 -0.006000 -0.006000 0.000000 -0.006000 -0.006000 0.000000 -0.006000 -0.006000 0.000000 -0.006000 -0.006000 0.000000 -0.006000 -0.006000 0.000000 -0.006000 -0.006000 0.000000 -0.006000 0.000000 0.000000 -0.012000 0.000000 0.000000 -0.012000 0.006000 0.000000 -0.006000 0.006000 0.000000 -0.006000 0.006000 0.000000 -0.006000 0.006000 0.000000 -0.006000 0.006000 0.000000 -0.006000 0.006000 0.000000 -0.006000 0.006000 0.000000 -0.012000 0.006000 0.000000 -0.012000 0.009000 0.000000 -0.006000 -0.009000 0.000000 -0.006000 -0.006000 0.000000 -0.006000 -0.006000 0.000000 -0.006000 -0.006000 0.000000 -0.006000 -0.006000 0.000000 -0.006000 -0.006000 0.000000 -0.006000 -0.006000 0.000000 -0.006000 -0.006000 0.000000 -0.006000 -0.006000 0.000000 -0.006000 0.000000 0.000000 -0.012000 0.000000 0.000000 -0.012000 0.006000 0.000000 -0.006000 0.006000 0.000000 -0.006000 0.006000 0.000000 -0.006000 0.006000 0.000000 -0.006000 0.006000 0.000000 -0.006000 0.006000 0.000000 -0.006000 0.006000 0.000000 -0.012000 0.006000 0.000000 -0.012000 0.009000 0.000000 -0.006000 -0.009000 0.000000 -0.006000 -0.006000 0.000000 -0.006000 -0.006000 0.000000 -0.006000 -0.006000 0.000000 -0.006000 -0.006000 0.000000 -0.006000 -0.006000 0.000000 -0.006000 -0.006000 0.000000 -0.006000 -0.006000 0.000000 -0.006000 -0.006000 0.000000 -0.006000 0.000000 0.000000 -0.006000 0.000000 0.000000 -0.006000 0.006000 0.000000 -0.006000 0.006000 0.000000 -0.006000 0.006000 0.000000 -0.006000 0.006000 0.000000 -0.006000 0.006000 0.000000 -0.006000 0.006000 0.000000 -0.006000 0.006000 0.000000 -0.012000 0.006000 0.000000 -0.012000 0.009000 0.000000 -0.006000 -0.009000 0.000000 -0.006000 -0.006000 0.000000 -0.006000 -0.006000 0.000000 -0.006000 -0.006000 0.000000 -0.006000 -0.006000 0.000000 -0.006000 -0.006000 0.000000 -0.006000 -0.006000 0.000000 -0.006000 -0.006000 0.000000 -0.006000 -0.006000 0.000000 -0.006000 0.000000 0.000000 -0.006000 0.000000 0.000000 -0.006000 0.006000 0.000000 -0.006000 0.006000 0.000000 -0.006000 0.006000 0.000000 -0.006000 0.006000 0.000000 -0.006000 0.006000 0.000000 -0.006000 0.006000 0.000000 -0.006000 0.006000 0.000000 -0.012000 0.006000 0.000000 -0.006000 0.009000 0.000000 -0.006000 -0.009000 0.000000 -0.006000 -0.006000 0.000000 -0.006000 -0.006000 0.000000 -0.006000 -0.006000 0.000000 -0.006000 -0.006000 0.000000 -0.006000 -0.006000 0.000000 -0.006000 -0.006000 0.000000 -0.006000 -0.006000 0.000000 -0.006000 -0.006000 0.000000 -0.006000 0.000000 0.000000 -0.006000 0.000000 0.000000 -0.006000 0.006000 0.000000 -0.006000 0.006000 0.000000 -0.006000 0.006000 0.000000 -0.006000 0.006000 0.000000 -0.006000 0.006000 0.000000 -0.006000 0.006000 0.000000 -0.006000 0.006000 0.000000 -0.012000 0.006000 0.000000 -0.006000 0.009000 0.000000 -0.006000 -0.009000 0.000000 -0.006000 -0.006000 0.000000 -0.006000 -0.006000 0.000000 -0.006000 -0.006000 0.000000 -0.006000 -0.006000 0.000000 -0.006000 -0.006000 0.000000 -0.006000 -0.006000 0.000000 -0.006000 -0.006000 0.000000 -0.006000 -0.006000 0.000000 -0.006000 0.000000 0.000000 -0.006000 0.000000 0.000000 -0.006000 0.006000 0.000000 -0.006000 0.006000 0.000000 -0.006000 0.006000 0.000000 -0.006000 0.006000 0.000000 -0.006000 0.006000 0.000000 -0.006000 0.006000 0.000000 -0.006000 0.006000 0.000000 -0.012000 0.006000 0.000000 -0.006000 0.009000 0.000000 -0.006000 -0.009000 0.000000 -0.006000 -0.006000 0.000000 -0.006000 -0.006000 0.000000 -0.006000 -0.006000 0.000000 -0.006000 -0.006000 0.000000 -0.006000 -0.006000 0.000000 -0.006000 -0.006000 0.000000 -0.006000 -0.006000 0.000000 -0.006000 -0.006000 0.000000 -0.006000 0.000000 0.000000 -0.006000 0.000000 0.000000 -0.006000 0.006000 0.000000 -0.006000 0.006000 0.000000 -0.006000 0.006000 0.000000 -0.006000 0.006000 0.000000 -0.006000 0.006000 0.000000 -0.006000 0.006000 0.000000 -0.006000 0.006000 0.000000 -0.012000 0.006000 0.000000 -0.006000 0.009000 0.000000 -0.006000 -0.009000 0.000000 -0.006000 -0.006000 0.000000 -0.006000 -0.006000 0.000000 -0.006000 -0.006000 0.000000 -0.006000 -0.006000 0.000000 -0.006000 -0.006000 0.000000 -0.006000 -0.006000 0.000000 -0.006000 -0.006000 0.000000 -0.006000 -0.006000 0.000000 -0.006000 0.000000 0.000000 -0.006000 0.000000 0.000000 -0.006000 0.006000 0.000000 -0.006000 0.006000 0.000000 -0.006000 0.006000 0.000000 -0.006000 0.006000 0.000000 -0.006000 0.006000 0.000000 -0.006000 0.006000 0.000000 -0.006000 0.006000 0.000000 -0.006000 0.006000 0.000000 -0.006000 0.009000 0.000000 -0.006000 -0.009000 0.000000 -0.006000 -0.006000 0.000000 -0.006000 -0.006000 0.000000 -0.006000 -0.006000 0.000000 -0.006000 -0.006000 0.000000 -0.006000 -0.006000 0.000000 -0.006000 -0.006000 0.000000 -0.006000 -0.006000 0.000000 -0.006000 -0.006000 0.000000 -0.006000 0.000000 0.000000 -0.006000 0.000000 0.000000 -0.006000 0.006000 0.000000 -0.006000 0.006000 0.000000 -0.006000 0.006000 0.000000 -0.006000 0.006000 0.000000 -0.006000 0.006000 0.000000 -0.006000 0.006000 0.000000 -0.006000 0.006000 0.000000 -0.006000 0.006000 0.000000 -0.006000 0.009000 0.000000 -0.006000 -0.009000 0.000000 -0.006000 -0.006000 0.000000 -0.006000 -0.006000 0.000000 -0.006000 -0.006000 0.000000 -0.006000 -0.006000 0.000000 -0.006000 -0.006000 0.000000 -0.006000 -0.006000 0.000000 -0.006000 -0.006000 0.000000 -0.006000 -0.006000 0.000000 -0.006000 0.000000 0.000000 -0.006000 0.000000 0.000000 -0.006000 0.006000 0.000000 -0.006000 0.006000 0.000000 -0.006000 0.006000 0.000000 -0.006000 0.006000 0.000000 -0.006000 0.006000 0.000000 -0.006000 0.006000 0.000000 -0.006000 0.006000 0.000000 -0.006000 0.006000 0.000000 -0.006000 0.009000 0.000000 -0.006000 -0.009000 0.000000 -0.006000 -0.006000 0.000000 -0.006000 -0.006000 0.000000 -0.006000 -0.006000 0.000000 -0.006000 -0.006000 0.000000 -0.006000 -0.006000 0.000000 -0.006000 -0.006000 0.000000 -0.006000 -0.006000 0.000000 -0.006000 -0.006000 0.000000 -0.006000 0.000000 0.000000 -0.006000 0.000000 0.000000 -0.006000 0.006000 0.000000 -0.006000 0.006000 0.000000 -0.006000 0.006000 0.000000 -0.006000 0.006000 0.000000 -0.006000 0.006000 0.000000 -0.006000 0.006000 0.000000 -0.006000 0.006000 0.000000 -0.006000 0.006000 0.000000 -0.006000 0.009000 0.000000 -0.006000 -0.009000 0.000000 -0.006000 -0.006000 0.000000 -0.006000 -0.006000 0.000000 -0.006000 -0.006000 0.000000 -0.006000 -0.006000 0.000000 -0.006000 -0.006000 0.000000 -0.006000 -0.006000 0.000000 -0.006000 -0.006000 0.000000 -0.006000 -0.006000 0.000000 -0.006000 0.000000 0.000000 -0.006000 0.000000 0.000000 -0.006000 0.006000 0.000000 -0.006000 0.006000 0.000000 -0.006000 0.006000 0.000000 -0.006000 0.006000 0.000000 -0.006000 0.006000 0.000000 -0.006000 0.006000 0.000000 -0.006000 0.006000 0.000000 0.000000 0.006000 0.000000 -0.006000 0.009000 0.000000 -0.006000 -0.009000 0.000000 -0.006000 -0.006000 0.000000 -0.006000 -0.006000 0.000000 -0.006000 -0.006000 0.000000 -0.006000 -0.006000 0.000000 -0.006000 -0.006000 0.000000 -0.006000 -0.006000 0.000000 -0.006000 -0.006000 0.000000 -0.006000 -0.006000 0.000000 -0.006000 0.000000 0.000000 -0.006000 0.000000 0.000000 -0.006000 0.006000 0.000000 -0.006000 0.006000 0.000000 -0.006000 0.006000 0.000000 -0.006000 0.006000 0.000000 -0.006000 0.006000 0.000000 -0.006000 0.006000 0.000000 -0.006000 0.006000 0.000000 0.000000 0.006000 0.000000 -0.006000 0.009000 0.000000 -0.006000 -0.009000 0.000000 -0.006000 -0.006000 0.000000 -0.006000 -0.006000 0.000000 -0.006000 -0.006000 0.000000 -0.006000 -0.006000 0.000000 -0.006000 -0.006000 0.000000 -0.006000 -0.006000 0.000000 -0.006000 -0.006000 0.000000 -0.006000 -0.006000 0.000000 -0.006000 0.000000 0.000000 -0.006000 0.000000 0.000000 -0.006000 0.006000 0.000000 -0.006000 0.006000 0.000000 -0.006000 0.006000 0.000000 -0.006000 0.006000 0.000000 -0.006000 0.006000 0.000000 -0.006000 0.006000 0.000000 -0.006000 0.006000 0.000000 -0.000000 0.006000 0.000000 -0.006000 0.009000 0.000000 -0.006000 -0.009000 0.000000 -0.006000 -0.006000 0.000000 -0.006000 -0.006000 0.000000 -0.006000 -0.006000 0.000000 -0.006000 -0.006000 0.000000 -0.006000 -0.006000 0.000000 -0.006000 -0.006000 0.000000 -0.006000 -0.006000 0.000000 -0.006000 -0.006000 0.000000 -0.006000 0.000000 0.000000 -0.006000 0.000000 0.000000 -0.006000 0.006000 0.000000 -0.006000 0.006000 0.000000 -0.006000 0.006000 0.000000 -0.006000 0.006000 0.000000 -0.006000 0.006000 0.000000 -0.006000 0.006000 0.000000 -0.006000 0.006000 0.000000 0.000000 0.006000 0.000000 -0.006000 0.009000 0.000000 -0.006000 -0.009000 0.000000 -0.006000 -0.006000 0.000000 -0.006000 -0.006000 0.000000 -0.006000 -0.006000 0.000000 -0.006000 -0.006000 0.000000 -0.006000 -0.006000 0.000000 -0.006000 -0.006000 0.000000 -0.006000 -0.006000 0.000000 -0.006000 -0.006000 0.000000 -0.006000 0.000000 0.000000 -0.006000 0.000000 0.000000 -0.000000 0.006000 0.000000 -0.006000 0.006000 0.000000 -0.006000 0.006000 0.000000 -0.006000 0.006000 0.000000 -0.006000 0.006000 0.000000 -0.006000 0.006000 0.000000 -0.006000 0.006000 0.000000 0.000000 0.006000 0.000000 0.000000 0.009000 0.000000 -0.006000 -0.009000 0.000000 -0.006000 -0.006000 0.000000 -0.006000 -0.006000 0.000000 -0.006000 -0.006000 0.000000 -0.006000 -0.006000 0.000000 -0.006000 -0.006000 0.000000 -0.006000 -0.006000 0.000000 -0.006000 -0.006000 0.000000 -0.006000 -0.006000 0.000000 -0.006000 0.000000 0.000000 -0.000000 0.000000 0.000000 0.000000 0.006000 0.000000 -0.006000 0.006000 0.000000 -0.006000 0.006000 0.000000 -0.006000 0.006000 0.000000 -0.006000 0.006000 0.000000 -0.006000 0.006000 0.000000 -0.006000 0.006000 0.000000 0.006000 0.006000 0.000000 -0.000000 0.009000 0.000000 -0.006000 -0.009000 0.000000 -0.006000 -0.006000 0.000000 -0.006000 -0.006000 0.000000 -0.006000 -0.006000 0.000000 -0.006000 -0.006000 0.000000 -0.006000 -0.006000 0.000000 -0.006000 -0.006000 0.000000 -0.006000 -0.006000 0.000000 -0.006000 -0.006000 0.000000 -0.006000 -0.000000 0.000000 -0.000000 -0.000000 0.000000 -0.000000 0.006001 0.000000 -0.006000 0.006000 0.000000 -0.006000 0.006000 0.000000 -0.006000 0.006000 0.000000 -0.006000 0.006000 0.000000 -0.006000 0.006000 0.000000 -0.006000 0.006000 0.000000 0.006000 0.006000 0.000000 -0.000000 0.009000 0.000000 -0.006000 -0.009000 0.000000 -0.006000 -0.012000 0.000000 -0.006000 -0.011939 0.000000 -0.006000 -0.005969 0.000000 -0.006000 -0.005980 0.000000 0.000000 -0.005948 0.000000 -0.006000 -0.005934 0.000000 -0.006001 0.000007 0.000000 0.000001 0.000022 0.000000 0.000001 0.000183 0.000000 0.000000 0.000117 0.000000 0.000002 0.000501 0.000000 -0.006000 0.006000 0.000000 -0.006000 0.006000 0.000000 -0.006000 0.006000 0.000000 -0.006000 0.006000 0.000000 -0.006000 0.006000 0.000000 -0.006002 0.006000 0.000000 0.012002 0.012295 0.000000 0.000000 0.009155 0.000000 -0.006000 -0.429005 0.000000 -0.005975 -0.606009 0.000000 -0.012059 -0.504068 0.000000 -0.005968 -0.507029 0.000000 -0.005973 -0.516031 0.000000 -0.006061 -0.513081 0.000000 -0.005941 -0.540059 0.000000 -0.012578 -0.534038 0.000000 -0.004748 -0.567692 0.000000 -0.007562 -0.515622 0.000000 0.001424 -0.456215 0.000000 -0.000136 -0.516779 0.000000 -0.012555 -0.533741 0.000000 -0.011890 -0.529112 0.000000 -0.005982 -0.573178 0.000000 -0.005902 -0.601694 0.000000 -0.009930 -9.556321 0.000000 -0.028281 -0.582042 0.000000 -0.020794 -9.451680 0.000000 0.019841 -0.361893 0.000000 -0.006000 -0.573006 0.000000 -0.005991 -0.468005 0.000000 -0.012029 -0.549006 0.000000 -0.005980 -0.546011 0.000000 -0.006004 -0.477000 0.000000 -0.006090 -0.492021 0.000000 0.000217 -0.582035 0.000000 -0.000685 -0.516004 0.000000 0.001063 -0.447617 0.000000 -0.001143 -0.545475 0.000000 0.001221 -0.516059 0.000000 -0.000211 -0.549445 0.000000 -0.012438 -0.620787 0.000000 -0.005929 -0.492714 0.000000 -0.006000 -0.576650 0.000000 -0.005953 -0.573003 0.000000 -0.009695 -9.666149 0.000000 -0.016570 -0.475623 0.000000 -0.009771 -9.703129 0.000000 0.023434 -0.370091 0.000000 -0.006000 -0.495004 0.000000 -0.005999 -0.588006 0.000000 -0.006127 -0.534006 0.000000 -0.005792 -0.489024 0.000000 -0.006082 -0.513007 0.000000 -0.000070 -0.558014 0.000000 0.000056 -0.399010 0.000000 -0.006304 -0.552005 0.000000 0.000796 -0.588672 0.000000 -0.001087 -0.521416 0.000000 0.001174 -0.510166 0.000000 -0.000180 -0.579327 0.000000 -0.012416 -0.482868 0.000000 -0.005970 -0.570942 0.000000 -0.006000 -0.533779 0.000000 -0.008967 -0.593937 0.000000 -0.009764 -9.463163 0.000000 -0.011211 -0.517378 0.000000 -0.015274 -9.705860 0.000000 0.033631 -0.330978 0.000000 -0.006000 -0.483008 0.000000 -0.006000 -0.491999 0.000000 -0.006150 -0.570003 0.000000 0.000143 -0.600004 0.000000 -0.001720 -0.501006 0.000000 -0.004172 -0.618034 0.000000 -0.003757 -0.546006 0.000000 -0.002489 -0.471015 0.000000 0.000613 -0.486609 0.000000 -0.001144 -0.473481 0.000000 0.001340 -0.531115 0.000000 -0.000273 -0.546512 0.000000 -0.012413 -0.533797 0.000000 -0.005979 -0.595476 0.000000 -0.006000 -0.557760 0.000000 -0.008972 -0.501519 0.000000 -0.009715 -9.680910 0.000000 -0.011907 -0.476831 0.000000 -0.007152 -9.703972 0.000000 0.035485 -0.331544 0.000000 -0.006000 -0.495006 0.000000 -0.006000 -0.519002 0.000000 -0.006189 -0.597004 0.000000 0.000179 -0.591029 0.000000 -0.001947 -0.461981 0.000000 -0.003962 -0.513052 0.000000 0.002546 -0.515988 0.000000 -0.002778 -0.531005 0.000000 0.000598 -0.570646 0.000000 -0.001201 -0.509504 0.000000 0.001588 -0.558151 0.000000 -0.000440 -0.495395 0.000000 -0.006399 -0.560861 0.000000 -0.005995 -0.517143 0.000000 -0.005999 -0.521677 0.000000 -0.009003 -0.556463 0.000000 -0.005057 -9.636947 0.000000 -0.011607 -0.514621 0.0