<VTKFile type="UnstructuredGrid" version="0.1" byte_order="LittleEndian">
  <UnstructuredGrid>
    <Piece NumberOfPoints="2000" NumberOfCells="0">
      <Points>
        <DataArray name="Position" type="Float32" NumberOfComponents="3" format="ascii">
-0.001816 -0.001093 0.000000 -0.001816 0.999272 0.000000 -0.001816 1.999272 0.000000 -0.001816 2.999272 0.000000 -0.002377 3.999273 0.000000 -0.002511 4.999273 0.000000 -0.002497 5.999273 0.000000 -0.002532 6.999273 0.000000 -0.001807 7.999274 0.000000 -0.002531 9.000000 0.000000 -0.001803 10.000001 0.000000 -0.001802 11.000726 0.000000 -0.001804 12.000727 0.000000 -0.001804 13.000727 0.000000 -0.001804 14.000727 0.000000 -0.001798 15.000727 0.000000 -0.001798 16.000728 0.000000 -0.001798 17.000728 0.000000 -0.001798 18.000728 0.000000 -0.001798 19.001093 0.000000 0.999269 -0.001093 0.000000 0.999269 0.999272 0.000000 0.999269 1.999272 0.000000 0.999269 2.999272 0.000000 0.998464 3.999273 0.000000 0.997859 4.999273 0.000000 0.997929 5.999273 0.000000 0.998549 6.999273 0.000000 0.999260 7.999274 0.000000 0.998550 9.000000 0.000000 0.999226 10.000001 0.000000 0.999262 11.000726 0.000000 0.999263 12.000727 0.000000 0.999263 13.000727 0.000000 0.999263 14.000727 0.000000 0.999260 15.000727 0.000000 0.999260 16.000728 0.000000 0.999260 17.000728 0.000000 0.999260 18.000728 0.000000 0.999079 19.001093 0.000000 1.999272 -0.001093 0.000000 1.999272 0.999272 0.000000 1.999272 1.999272 0.000000 1.999272 2.999272 0.000000 1.999268 3.999273 0.000000 1.998541 4.999273 0.000000 1.998534 5.999273 0.000000 1.998553 6.999273 0.000000 1.999261 7.999274 0.000000 1.998553 9.000000 0.000000 1.999248 10.000001 0.000000 1.999272 11.000726 0.000000 1.999272 12.000727 0.000000 1.999272 13.000727 0.000000 1.999272 14.000727 0.000000 1.999272 15.000727 0.000000 1.999272 16.000728 0.000000 1.999272 17.000728 0.000000 1.999272 18.000728 0.000000 1.999093 19.001093 0.000000 2.999272 -0.001093 0.000000 2.999272 0.999272 0.000000 2.999272 1.999272 0.000000 2.999272 2.999272 0.000000 2.999271 3.999273 0.000000 2.998549 4.999273 0.000000 2.998551 5.999273 0.000000 2.998557 6.999273 0.000000 2.999263 7.999274 0.000000 2.998557 9.000000 0.000000 2.999251 10.000001 0.000000 2.999272 11.000726 0.000000 2.999272 12.000727 0.000000 2.999272 13.000727 0.000000 2.999272 14.000727 0.000000 2.999272 15.000727 0.000000 2.999272 16.000728 0.000000 2.999272 17.000728 0.000000 2.999272 18.000728 0.000000 2.999104 19.001093 0.000000 3.999272 -0.001093 0.000000 3.999272 0.999272 0.000000 3.999272 1.999272 0.000000 3.999272 2.999272 0.000000 3.999271 3.999273 0.000000 3.998551 4.999273 0.000000 3.998556 5.999273 0.000000 3.999266 6.999273 0.000000 3.999263 7.999274 0.000000 3.999266 9.000000 0.000000 3.999255 10.000001 0.000000 3.999272 11.000726 0.000000 3.999272 12.000727 0.000000 3.999272 13.000727 0.000000 3.999272 14.000727 0.000000 3.999272 15.000727 0.000000 3.999272 16.000728 0.000000 3.999272 17.000728 0.000000 3.999272 18.000728 0.000000 3.999115 19.001093 0.000000 4.999273 -0.003910 0.000000 4.999273 0.997805 0.000000 4.999273 1.997826 0.000000 4.999273 2.997832 0.000000 4.999272 3.998535 0.000000 4.998552 4.998547 0.000000 4.998587 5.998556 0.000000 4.999271 6.998568 0.000000 4.999263 7.999273 0.000000 4.999271 8.999273 0.000000 4.999256 9.999273 0.000000 4.999272 11.000001 0.000000 4.999273 12.000727 0.000000 4.999273 13.000727 0.000000 4.999273 14.000727 0.000000 4.999273 15.000727 0.000000 4.999273 16.000728 0.000000 4.999273 17.000728 0.000000 4.999273 18.000728 0.000000 4.999140 19.001093 0.000000 5.999274 -0.001809 0.000000 5.999274 0.998584 0.000000 5.999274 1.999265 0.000000 5.999274 2.999272 0.000000 5.999274 3.999272 0.000000 5.998558 4.999272 0.000000 5.998592 5.999273 0.000000 5.999271 6.999961 0.000000 5.999265 7.999999 0.000000 5.999271 9.000000 0.000000 5.999260 10.000001 0.000000 5.999272 11.000726 0.000000 5.999273 12.000727 0.000000 5.999273 13.000727 0.000000 5.999273 14.000727 0.000000 5.999273 15.000727 0.000000 5.999273 16.000728 0.000000 5.999273 17.000728 0.000000 5.999273 18.000728 0.000000 5.999182 19.001093 0.000000 6.999274 -0.001093 0.000000 6.999274 0.999272 0.000000 6.999274 1.999272 0.000000 6.999274 2.999272 0.000000 6.999274 3.999273 0.000000 6.999264 4.999273 0.000000 6.999264 5.999273 0.000000 6.999272 6.999274 0.000000 6.999270 7.999274 0.000000 6.999272 8.999999 0.000000 6.999261 10.000001 0.000000 6.999273 11.000726 0.000000 6.999273 12.000727 0.000000 6.999273 13.000727 0.000000 6.999273 14.000727 0.000000 6.999273 15.000727 0.000000 6.999273 16.000728 0.000000 6.999273 17.000728 0.000000 6.999273 18.000728 0.000000 6.999184 19.001093 0.000000 7.999274 -0.001093 0.000000 7.999274 0.999272 0.000000 7.999274 1.999272 0.000000 7.999274 2.999272 0.000000 7.999275 3.999273 0.000000 7.999270 4.999273 0.000000 7.999270 5.999273 0.000000 7.999271 6.999273 0.000000 7.999272 7.999274 0.000000 7.999273 8.999999 0.000000 7.999263 10.000001 0.000000 7.999273 11.000726 0.000000 7.999273 12.000727 0.000000 7.999273 13.000727 0.000000 7.999273 14.000727 0.000000 7.999273 15.000727 0.000000 7.999273 16.000728 0.000000 7.999273 17.000728 0.000000 7.999273 18.000728 0.000000 7.999187 19.001093 0.000000 8.999274 -0.001093 0.000000 8.999274 0.999272 0.000000 8.999274 1.999272 0.000000 8.999274 2.999272 0.000000 8.999275 3.999273 0.000000 8.999271 4.999273 0.000000 8.999272 5.999273 0.000000 8.999273 6.999273 0.000000 8.999273 7.999274 0.000000 8.999274 9.000000 0.000000 8.999263 10.000001 0.000000 8.999274 11.000726 0.000000 8.999274 12.000727 0.000000 8.999274 13.000727 0.000000 8.999274 14.000727 0.000000 8.999274 15.000727 0.000000 8.999274 16.000728 0.000000 8.999274 17.000728 0.000000 8.999274 18.000728 0.000000 8.999189 19.001093 0.000000 9.999275 -0.001093 0.000000 9.999275 0.999272 0.000000 9.999275 1.999272 0.000000 9.999275 2.999272 0.000000 9.999275 3.999273 0.000000 9.999273 4.999273 0.000000 9.999273 5.999273 0.000000 9.999273 6.999273 0.000000 9.999274 7.999274 0.000000 9.999274 9.000000 0.000000 9.999265 10.000001 0.000000 9.999274 11.000726 0.000000 9.999274 12.000727 0.000000 9.999274 13.000727 0.000000 9.999274 14.000727 0.000000 9.999274 15.000727 0.000000 9.999274 16.000728 0.000000 9.999274 17.000728 0.000000 9.999274 18.000728 0.000000 9.999193 19.001093 0.000000 10.999275 -0.001093 0.000000 10.999275 0.999272 0.000000 10.999275 1.999272 0.000000 10.999275 2.999272 0.000000 10.999275 3.999273 0.000000 10.999278 4.999273 0.000000 10.999278 5.999273 0.000000 10.999276 6.999273 0.000000 10.999274 7.999274 0.000000 10.999276 9.000000 0.000000 10.999270 10.000001 0.000000 10.999274 11.000726 0.000000 10.999274 12.000727 0.000000 10.999274 13.000727 0.000000 10.999274 14.000727 0.000000 10.999274 15.000727 0.000000 10.999274 16.000728 0.000000 10.999274 17.000728 0.000000 10.999274 18.000728 0.000000 10.999195 19.001093 0.000000 11.999275 -0.001093 0.000000 11.999275 0.999272 0.000000 11.999275 1.999272 0.000000 11.999275 2.999272 0.000000 11.999276 3.999273 0.000000 11.999278 4.999273 0.000000 11.999278 5.999273 0.000000 11.999276 6.999273 0.000000 11.999275 7.999274 0.000000 11.999276 9.000000 0.000000 11.999270 10.000001 0.000000 11.999275 11.000726 0.000000 11.999275 12.000727 0.000000 11.999275 13.000727 0.000000 11.999275 14.000727 0.000000 11.999275 15.000727 0.000000 11.999275 16.000728 0.000000 11.999275 17.000728 0.000000 11.999275 18.000728 0.000000 11.999205 19.001093 0.000000 12.999276 -0.001093 0.000000 12.999276 0.999272 0.000000 12.999276 1.999272 0.000000 12.999276 2.999272 0.000000 12.999276 3.999273 0.000000 12.999278 4.999273 0.000000 12.999278 5.999273 0.000000 12.999277 6.999273 0.000000 12.999275 7.999274 0.000000 12.999277 9.000000 0.000000 12.999271 10.000001 0.000000 12.999275 11.000726 0.000000 12.999275 12.000727 0.000000 12.999275 13.000727 0.000000 12.999275 14.000727 0.000000 12.999275 15.000727 0.000000 12.999275 16.000728 0.000000 12.999275 17.000728 0.000000 12.999275 18.000728 0.000000 12.999207 19.001093 0.000000 13.999276 -0.001093 0.000000 13.999276 0.999272 0.000000 13.999276 1.999272 0.000000 13.999276 2.999272 0.000000 13.999276 3.999273 0.000000 13.999278 4.999273 0.000000 13.999278 5.999273 0.000000 13.999277 6.999273 0.000000 13.999275 7.999274 0.000000 13.999277 9.000000 0.000000 13.999272 10.000001 0.000000 13.999275 11.000726 0.000000 13.999275 12.000727 0.000000 13.999275 13.000727 0.000000 13.999275 14.000727 0.000000 13.999275 15.000727 0.000000 13.999275 16.000728 0.000000 13.999275 17.000728 0.000000 13.999275 18.000728 0.000000 13.999258 19.001093 0.000000 14.999276 -0.001093 0.000000 14.999276 0.999272 0.000000 14.999276 1.999272 0.000000 14.999276 2.999272 0.000000 14.999276 3.999273 0.000000 14.999279 4.999273 0.000000 14.999279 5.999273 0.000000 14.999277 6.999273 0.000000 14.999275 7.999274 0.000000 14.999277 9.000000 0.000000 14.999272 10.000001 0.000000 14.999276 11.000726 0.000000 14.999276 12.000727 0.000000 14.999276 13.000727 0.000000 14.999276 14.000727 0.000000 14.999276 15.000727 0.000000 14.999276 16.000728 0.000000 14.999276 17.000728 0.000000 14.999276 18.000728 0.000000 14.999270 19.001093 0.000000 15.999276 -0.001093 0.000000 15.999276 0.999272 0.000000 15.999276 1.999272 0.000000 15.999276 2.999272 0.000000 15.999277 3.999273 0.000000 15.999279 4.999273 0.000000 15.999279 5.999273 0.000000 15.999278 6.999273 0.000000 15.999276 7.999274 0.000000 15.999278 9.000000 0.000000 15.999273 10.000001 0.000000 15.999277 11.000726 0.000000 15.999277 12.000727 0.000000 15.999277 13.000727 0.000000 15.999277 14.000727 0.000000 15.999276 15.000727 0.000000 15.999276 16.000728 0.000000 15.999276 17.000728 0.000000 15.999276 18.000728 0.000000 15.999270 19.001093 0.000000 16.999277 -0.001093 0.000000 16.999277 0.999272 0.000000 16.999277 1.999272 0.000000 16.999277 2.999272 0.000000 16.999277 3.999273 0.000000 16.999279 4.999273 0.000000 16.999279 5.999273 0.000000 16.999278 6.999273 0.000000 16.999276 7.999274
[...]
      <PointData Vectors="vector">
        <DataArray type="Float32" Name="Velocity" NumberOfComponents="3" format="ascii">
-0.015000 -0.009000 0.000000 -0.015000 -0.006000 0.000000 -0.015000 -0.006000 0.000000 -0.015000 -0.006000 0.000000 -0.021000 -0.006000 0.000000 -0.021000 -0.006000 0.000000 -0.021000 -0.006000 0.000000 -0.021000 -0.006000 0.000000 -0.015000 -0.006000 0.000000 -0.021000 0.000000 0.000000 -0.015000 0.000000 0.000000 -0.015000 0.006000 0.000000 -0.015000 0.006000 0.000000 -0.015000 0.006000 0.000000 -0.015000 0.006000 0.000000 -0.015000 0.006000 0.000000 -0.015000 0.006000 0.000000 -0.015000 0.006000 0.000000 -0.015000 0.006000 0.000000 -0.015000 0.009000 0.000000 -0.006000 -0.009000 0.000000 -0.006000 -0.006000 0.000000 -0.006000 -0.006000 0.000000 -0.006000 -0.006000 0.000000 -0.012000 -0.006000 0.000000 -0.018000 -0.006000 0.000000 -0.018000 -0.006000 0.000000 -0.012000 -0.006000 0.000000 -0.018000 -0.006000 0.000000 -0.012000 0.000000 0.000000 -0.018000 0.000000 0.000000 -0.006000 0.006000 0.000000 -0.006000 0.006000 0.000000 -0.006000 0.006000 0.000000 -0.006000 0.006000 0.000000 -0.006000 0.006000 0.000000 -0.006000 0.006000 0.000000 -0.006000 0.006000 0.000000 -0.006000 0.006000 0.000000 -0.018000 0.009000 0.000000 -0.006000 -0.009000 0.000000 -0.006000 -0.006000 0.000000 -0.006000 -0.006000 0.000000 -0.006000 -0.006000 0.000000 -0.006000 -0.006000 0.000000 -0.012000 -0.006000 0.000000 -0.012000 -0.006000 0.000000 -0.012000 -0.006000 0.000000 -0.018000 -0.006000 0.000000 -0.012000 0.000000 0.000000 -0.012000 0.000000 0.000000 -0.006000 0.006000 0.000000 -0.006000 0.006000 0.000000 -0.006000 0.006000 0.000000 -0.006000 0.006000 0.000000 -0.006000 0.006000 0.000000 -0.006000 0.006000 0.000000 -0.006000 0.006000 0.000000 -0.006000 0.006000 0.000000 -0.018000 0.009000 0.000000 -0.006000 -0.009000 0.000000 -0.006000 -0.006000 0.000000 -0.006000 -0.006000 0.000000 -0.006000 -0.006000 0.000000 -0.006000 -0.006000 0.000000 -0.012000 -0.006000 0.000000 -0.012000 -0.006000 0.000000 -0.012000 -0.006000 0.000000 -0.009000 -0.006000 0.000000 -0.012000 -0.000000 0.000000 -0.018000 -0.000000 0.000000 -0.006000 0.006000 0.000000 -0.006000 0.006000 0.000000 -0.006000 0.006000 0.000000 -0.006000 0.006000 0.000000 -0.006000 0.006000 0.000000 -0.006000 0.006000 0.000000 -0.006000 0.006000 0.000000 -0.006000 0.006000 0.000000 -0.018000 0.009000 0.000000 -0.006000 -0.009000 0.000000 -0.006000 -0.006000 0.000000 -0.006000 -0.006000 0.000000 -0.006000 -0.006000 0.000000 -0.006000 -0.005999 0.000000 -0.012000 -0.006000 0.000000 -0.012000 -0.005999 0.000000 -0.006000 -0.006000 0.000000 -0.015000 -0.006000 0.000000 -0.006000 0.000000 0.000000 -0.018000 0.000030 0.000000 -0.006000 0.006000 0.000000 -0.006000 0.006000 0.000000 -0.006000 0.006000 0.000000 -0.006000 0.006000 0.000000 -0.006000 0.006000 0.000000 -0.006000 0.006000 0.000000 -0.006000 0.006000 0.000000 -0.006000 0.006000 0.000000 -0.018000 0.009000 0.000000 -0.006000 -0.033000 0.000000 -0.006000 -0.018000 0.000000 -0.006000 -0.018000 0.000000 -0.006000 -0.018000 0.000000 -0.006000 -0.012001 0.000000 -0.012001 -0.012001 0.000000 -0.012000 -0.012001 0.000000 -0.006000 -0.012000 0.000000 -0.018000 -0.006035 0.000000 -0.006000 -0.006000 0.000000 -0.012000 -0.006064 0.000000 -0.006000 -0.000000 0.000000 -0.006000 0.006000 0.000000 -0.006000 0.006000 0.000000 -0.006000 0.006000 0.000000 -0.006000 0.006000 0.000000 -0.006000 0.006000 0.000000 -0.006000 0.006000 0.000000 -0.006000 0.006000 0.000000 -0.018000 0.009000 0.000000 -0.006000 -0.015000 0.000000 -0.006000 -0.012000 0.000000 -0.006000 -0.006000 0.000000 -0.006000 -0.006000 0.000000 -0.006000 -0.005999 0.000000 -0.012000 -0.006000 0.000000 -0.012000 -0.005999 0.000000 -0.006000 -0.000000 0.000000 -0.012000 0.000073 0.000000 -0.006000 0.000000 0.000000 -0.006000 0.000034 0.000000 -0.006000 0.006000 0.000000 -0.006000 0.006000 0.000000 -0.006000 0.006000 0.000000 -0.006000 0.006000 0.000000 -0.006000 0.006000 0.000000 -0.006000 0.006000 0.000000 -0.006000 0.006000 0.000000 -0.006000 0.006000 0.000000 -0.012000 0.009000 0.000000 -0.006000 -0.009000 0.000000 -0.006000 -0.006000 0.000000 -0.006000 -0.006000 0.000000 -0.006000 -0.006000 0.000000 -0.006000 -0.006000 0.000000 -0.006000 -0.006000 0.000000 -0.006000 -0.006000 0.000000 -0.009000 -0.006000 0.000000 -0.012000 -0.006039 0.000000 -0.006000 -0.000000 0.000000 -0.012000 -0.000000 0.000000 -0.006000 0.006000 0.000000 -0.006000 0.006000 0.000000 -0.006000 0.006000 0.000000 -0.006000 0.006000 0.000000 -0.006000 0.006000 0.000000 -0.006000 0.006000 0.000000 -0.006000 0.006000 0.000000 -0.006000 0.006000 0.000000 -0.012000 0.009000 0.000000 -0.006000 -0.009000 0.000000 -0.006000 -0.006000 0.000000 -0.006000 -0.006000 0.000000 -0.006000 -0.006000 0.000000 -0.006000 -0.006000 0.000000 -0.006000 -0.006000 0.000000 -0.006000 -0.006000 0.000000 -0.015000 -0.006000 0.000000 -0.000000 -0.006000 0.000000 -0.006000 0.000000 0.000000 -0.012000 0.000000 0.000000 -0.006000 0.006000 0.000000 -0.006000 0.006000 0.000000 -0.006000 0.006000 0.000000 -0.006000 0.006000 0.000000 -0.006000 0.006000 0.000000 -0.006000 0.006000 0.000000 -0.006000 0.006000 0.000000 -0.006000 0.006000 0.000000 -0.012000 0.009000 0.000000 -0.006000 -0.009000 0.000000 -0.006000 -0.006000 0.000000 -0.006000 -0.006000 0.000000 -0.006000 -0.006000 0.000000 -0.009000 -0.006000 0.000000 -0.006000 -0.006000 0.000000 -0.006000 -0.006000 0.000000 -0.006000 -0.006000 0.000000 -0.012000 -0.006000 0.000000 -0.006000 0.000000 0.000000 -0.012000 0.000000 0.000000 -0.006000 0.006000 0.000000 -0.006000 0.006000 0.000000 -0.006000 0.006000 0.000000 -0.006000 0.006000 0.000000 -0.006000 0.006000 0.000000 -0.006000 0.006000 0.000000 -0.006000 0.006000 0.000000 -0.006000 0.006000 0.000000 -0.012000 0.009000 0.000000 -0.006000 -0.009000 0.000000 -0.006000 -0.006000 0.000000 -0.006000 -0.006000 0.000000 -0.006000 -0.006000 0.000000 -0.009000 -0.006000 0.000000 -0.006000 -0.006000 0.000000 -0.006000 -0.006000 0.000000 -0.006000 -0.006000 0.000000 0.000000 -0.006000 0.000000 -0.006000 -0.000000 0.000000 -0.012000 0.000000 0.000000 -0.006000 0.006000 0.000000 -0.006000 0.006000 0.000000 -0.006000 0.006000 0.000000 -0.006000 0.006000 0.000000 -0.006000 0.006000 0.000000 -0.006000 0.006000 0.000000 -0.006000 0.006000 0.000000 -0.006000 0.006000 0.000000 -0.012000 0.009000 0.000000 -0.006000 -0.009000 0.000000 -0.006000 -0.006000 0.000000 -0.006000 -0.006000 0.000000 -0.006000 -0.006000 0.000000 -0.006000 -0.006000 0.000000 -0.006000 -0.006000 0.000000 -0.006000 -0.006000 0.000000 -0.006000 -0.006000 0.000000 -0.006000 -0.006000 0.000000 -0.006000 0.000000 0.000000 -0.006000 0.000000 0.000000 -0.006000 0.006000 0.000000 -0.006000 0.006000 0.000000 -0.006000 0.006000 0.000000 -0.006000 0.006000 0.000000 -0.006000 0.006000 0.000000 -0.006000 0.006000 0.000000 -0.006000 0.006000 0.000000 -0.006000 0.006000 0.000000 -0.012000 0.009000 0.000000 -0.006000 -0.009000 0.000000 -0.006000 -0.006000 0.000000 -0.006000 -0.006000 0.000000 -0.006000 -0.006000 0.000000 -0.006000 -0.006000 0.000000 -0.006000 -0.006000 0.000000 -0.006000 -0.006000 0.000000 -0.006000 -0.006000 0.000000 -0.006000 -0.006000 0.000000 -0.006000 0.000000 0.000000 -0.006000 0.000000 0.000000 -0.006000 0.006000 0.000000 -0.006000 0.006000 0.000000 -0.006000 0.006000 0.000000 -0.006000 0.006000 0.000000 -0.006000 0.006000 0.000000 -0.006000 0.006000 0.000000 -0.006000 0.006000 0.000000 -0.006000 0.006000 0.000000 -0.012000 0.009000 0.000000 -0.006000 -0.009000 0.000000 -0.006000 -0.006000 0.000000 -0.006000 -0.006000 0.000000 -0.006000 -0.006000 0.000000 -0.006000 -0.006000 0.000000 -0.006000 -0.006000 0.000000 -0.006000 -0.006000 0.000000 -0.006000 -0.006000 0.000000 -0.006000 -0.006000 0.000000 -0.006000 0.000000 0.000000 -0.006000 0.000000 0.000000 -0.006000 0.006000 0.000000 -0.006000 0.006000 0.000000 -0.006000 0.006000 0.000000 -0.006000 0.006000 0.000000 -0.006000 0.006000 0.000000 -0.006000 0.006000 0.000000 -0.006000 0.006000 0.000000 -0.006000 0.006000 0.000000 -0.012000 0.009000 0.000000 -0.006000 -0.009000 0.000000 -0.006000 -0.006000 0.000000 -0.006000 -0.006000 0.000000 -0.006000 -0.006000 0.000000 -0.006000 -0.006000 0.000000 -0.006000 -0.006000 0.000000 -0.006000 -0.006000 0.000000 -0.006000 -0.006000 0.000000 -0.003000 -0.006000 0.000000 -0.006000 0.000000 0.000000 -0.012000 0.000000 0.000000 -0.006000 0.006000 0.000000 -0.006000 0.006000 0.000000 -0.006000 0.006000 0.000000 -0.006000 0.006000 0.000000 -0.006000 0.006000 0.000000 -0.006000 0.006000 0.000000 -0.006000 0.006000 0.000000 -0.006000 0.006000 0.000000 -0.006000 0.009000 0.000000 -0.006000 -0.009000 0.000000 -0.006000 -0.006000 0.000000 -0.006000 -0.006000 0.000000 -0.006000 -0.006000 0.000000 -0.006000 -0.006000 0.000000 -0.006000 -0.006000 0.000000 -0.006000 -0.006000 0.000000 -0.006000 -0.006000 0.000000 -0.003000 -0.006000 0.000000 -0.006000 0.000000 0.000000 -0.009000 0.000000 0.000000 -0.006000 0.006000 0.000000 -0.006000 0.006000 0.000000 -0.006000 0.006000 0.000000 -0.006000 0.006000 0.000000 -0.006000 0.006000 0.000000 -0.006000 0.006000 0.000000 -0.006000 0.006000 0.000000 -0.006000 0.006000 0.000000 -0.006000 0.009000 0.000000 -0.006000 -0.009000 0.000000 -0.006000 -0.006000 0.000000 -0.006000 -0.006000 0.000000 -0.006000 -0.006000 0.000000 -0.006000 -0.006000 0.000000 -0.006000 -0.006000 0.000000 -0.006000 -0.006000 0.000000 -0.003000 -0.006000 0.000000 -0.006000 -0.006000 0.000000 -0.006000 0.000000 0.000000 -0.018000 0.000000 0.000000 -0.006000 0.006000 0.000000 -0.006000 0.006000 0.000000 -0.006000 0.006000 0.000000 -0.006000 0.006000 0.000000 -0.006000 0.006000 0.000000 -0.006000 0.006000 0.000000 -0.006000 0.006000 0.000000 -0.006000 0.006000 0.000000 -0.006000 0.009000 0.000000 -0.006000 -0.009000 0.000000 -0.006000 -0.006000 0.000000 -0.006000 -0.006000 0.000000 -0.006000 -0.006000 0.000000 -0.006000 -0.006000 0.000000 -0.006000 -0.006000 0.000000 -0.006000 -0.006000 0.000000 -0.003000 -0.006000 0.000000 -0.006000 -0.006000 0.000000 -0.006000 0.000000 0.000000 -0.012000 0.000000 0.000000 -0.006000 0.006000 0.000000 -0.006000 0.006000 0.000000 -0.006000 0.006000 0.000000 -0.006000 0.006000 0.000000 -0.006000 0.006000 0.000000 -0.006000 0.006000 0.000000 -0.006000 0.006000 0.000000 -0.006000 0.006000 0.000000 -0.006000 0.009000 0.000000 -0.006000 -0.009000 0.000000 -0.006000 -0.006000 0.000000 -0.006000 -0.006000 0.000000 -0.006000 -0.006000 0.000000 -0.006000 -0.006000 0.000000 -0.006000 -0.006000 0.000000 -0.006000 -0.006000 0.000000 -0.006000 -0.006000 0.000000 -0.006000 -0.006000 0.000000 -0.006000 0.000000 0.000000 -0.006000 0.000000 0.000000 -0.006000 0.006000 0.000000 -0.006000 0.006000 0.000000 -0.006000 0.006000 0.000000 -0.006000 0.006000 0.000000 -0.006000 0.006000 0.000000 -0.006000 0.006000 0.000000 -0.006000 0.006000 0.000000 -0.006000 0.006000 0.000000 -0.006000 0.009000 0.000000 -0.006000 -0.009000 0.000000 -0.006000 -0.006000 0.000000 -0.006000 -0.006000 0.000000 -0.006000 -0.006000 0.000000 -0.006000 -0.006000 0.000000 -0.006000 -0.006000 0.000000 -0.006000 -0.006000 0.000000 -0.006000 -0.006000 0.000000 -0.006000 -0.006000 0.000000 -0.006000 0.000000 0.000000 -0.006000 0.000000 0.000000 -0.006000 0.006000 0.000000 -0.006000 0.006000 0.000000 -0.006000 0.006000 0.000000 -0.006000 0.006000 0.000000 -0.006000 0.006000 0.000000 -0.006000 0.006000 0.000000 -0.006000 0.006000 0.000000 -0.006000 0.006000 0.000000 -0.006000 0.009000 0.000000 -0.006000 -0.009000 0.000000 -0.006000 -0.006000 0.000000 -0.006000 -0.006000 0.000000 -0.006000 -0.006000 0.000000 -0.006000 -0.006000 0.000000 -0.006000 -0.006000 0.000000 -0.006000 -0.006000 0.000000 -0.006000 -0.006000 0.000000 -0.006000 -0.006000 0.000000 -0.006000 0.000000 0.000000 -0.003000 0.000000 0.000000 -0.006000 0.006000 0.000000 -0.006000 0.006000 0.000000 -0.006000 0.006000 0.000000 -0.006000 0.006000 0.000000 -0.006000 0.006000 0.000000 -0.006000 0.006000 0.000000 -0.006000 0.006000 0.000000 -0.006000 0.006000 0.000000 -0.006000 0.009000 0.000000 -0.006000 -0.009000 0.000000 -0.006000 -0.006000 0.000000 -0.006000 -0.006000 0.000000 -0.006000 -0.006000 0.000000 -0.006000 -0.006000 0.000000 -0.006000 -0.006000 0.000000 -0.006000 -0.006000 0.000000 -0.006000 -0.006000 0.000000 -0.006000 -0.006000 0.000000 -0.006000 0.000000 0.000000 -0.003000 0.000000 0.000000 -0.006000 0.006000 0.000000 -0.006000 0.006000 0.000000 -0.006000 0.006000 0.000000 -0.006000 0.006000 0.000000 -0.006000 0.006000 0.000000 -0.006000 0.006000 0.000000 -0.006000 0.006000 0.000000 -0.006000 0.006000 0.000000 -0.006000 0.009000 0.000000 -0.006000 -0.009000 0.000000 -0.006000 -0.006000 0.000000 -0.006000 -0.006000 0.000000 -0.006000 -0.006000 0.000000 -0.006000 -0.006000 0.000000 -0.006000 -0.006000 0.000000 -0.006000 -0.006000 0.000000 -0.006000 -0.006000 0.000000 -0.006000 -0.006000 0.000000 -0.006000 0.000000 0.000000 -0.003000 0.000000 0.000000 -0.006000 0.006000 0.000000 -0.006000 0.006000 0.000000 -0.006000 0.006000 0.000000 -0.006000 0.006000 0.000000 -0.006000 0.006000 0.000000 -0.006000 0.006000 0.000000 -0.006000 0.006000 0.000000 -0.006000 0.006000 0.000000 -0.006000 0.009000 0.000000 -0.006000 -0.009000 0.000000 -0.006000 -0.006000 0.000000 -0.006000 -0.006000 0.000000 -0.006000 -0.006000 0.000000 -0.006000 -0.006000 0.000000 -0.006000 -0.006000 0.000000 -0.006000 -0.006000 0.000000 -0.006000 -0.006000 0.000000 -0.006000 -0.006000 0.000000 -0.006000 0.000000 0.000000 -0.003000 0.000000 0.000000 -0.006000 0.006000 0.000000 -0.006000 0.006000 0.000000 -0.006000 0.006000 0.000000 -0.006000 0.006000 0.000000 -0.006000 0.006000 0.000000 -0.006000 0.006000 0.000000 -0.006000 0.006000 0.000000 -0.009000 0.006000 0.000000 -0.006000 0.009000 0.000000 -0.006000 -0.009000 0.000000 -0.006000 -0.006000 0.000000 -0.006000 -0.006000 0.000000 -0.006000 -0.006000 0.000000 -0.006000 -0.006000 0.000000 -0.006000 -0.006000 0.000000 -0.006000 -0.006000 0.000000 -0.006000 -0.006000 0.000000 -0.006000 -0.006000 0.000000 -0.006000 0.000000 0.000000 0.003000 0.000000 0.000000 -0.006000 0.006000 0.000000 -0.006000 0.006000 0.000000 -0.006000 0.006000 0.000000 -0.006000 0.006000 0.000000 -0.006000 0.006000 0.000000 -0.006000 0.006000 0.000000 -0.006000 0.006000 0.000000 -0.009000 0.006000 0.000000 -0.006000 0.009000 0.000000 -0.006000 -0.009000 0.000000 -0.006000 -0.006000 0.000000 -0.006000 -0.006000 0.000000 -0.006000 -0.006000 0.000000 -0.006000 -0.006000 0.000000 -0.006000 -0.006000 0.000000 -0.006000 -0.006000 0.000000 -0.006000 -0.006000 0.000000 -0.006000 -0.006000 0.000000 -0.006000 0.000000 0.000000 -0.000000 0.000000 0.000000 -0.006000 0.006000 0.000000 -0.006000 0.006000 0.000000 -0.006000 0.006000 0.000000 -0.006000 0.006000 0.000000 -0.006000 0.006000 0.000000 -0.006000 0.006000 0.000000 -0.006000 0.006000 0.000000 -0.006000 0.006000 0.000000 -0.006000 0.009000 0.000000 -0.006000 -0.009000 0.000000 -0.006000 -0.006000 0.000000 -0.006000 -0.006000 0.000000 -0.006000 -0.006000 0.000000 -0.006000 -0.006000 0.000000 -0.006000 -0.006000 0.000000 -0.006000 -0.006000 0.000000 -0.006000 -0.006000 0.000000 -0.006000 -0.006000 0.000000 -0.006000 0.000000 0.000000 0.003000 0.000000 0.000000 -0.006000 0.006000 0.000000 -0.006000 0.006000 0.000000 -0.006000 0.006000 0.000000 -0.006000 0.006000 0.000000 -0.006000 0.006000 0.000000 -0.006000 0.006000 0.000000 -0.006000 0.006000 0.000000 -0.006000 0.006000 0.000000 0.000000 0.009000 0.000000 -0.006000 -0.009000 0.000000 -0.006000 -0.006000 0.000000 -0.006000 -0.006000 0.000000 -0.006000 -0.006000 0.000000 -0.006000 -0.006000 0.000000 -0.006000 -0.006000 0.000000 -0.006000 -0.006000 0.000000 -0.006000 -0.006000 0.000000 -0.006000 -0.006000 0.000000 -0.006000 0.000000 0.000000 -0.006000 0.000000 0.000000 -0.006000 0.006000 0.000000 -0.006000 0.006000 0.000000 -0.006000 0.006000 0.000000 -0.006000 0.006000 0.000000 -0.006000 0.006000 0.000000 -0.006000 0.006000 0.000000 -0.006000 0.006000 0.000000 -0.006000 0.006000 0.000000 -0.000000 0.009000 0.000000 -0.006000 -0.009000 0.000000 -0.006000 -0.006000 0.000000 -0.006000 -0.006000 0.000000 -0.006000 -0.006000 0.000000 -0.006000 -0.006000 0.000000 -0.006000 -0.006000 0.000000 -0.006000 -0.006000 0.000000 -0.006000 -0.006000 0.000000 -0.006000 -0.006000 0.000000 -0.006000 0.000000 0.000000 -0.006000 -0.000000 0.000000 -0.006000 0.006000 0.000000 -0.006000 0.006000 0.000000 -0.006000 0.006000 0.000000 -0.006000 0.006000 0.000000 -0.006000 0.006000 0.000000 -0.006000 0.006000 0.000000 -0.006000 0.006000 0.000000 -0.006000 0.006000 0.000000 -0.000000 0.009000 0.000000 -0.006000 -0.009000 0.000000 -0.006000 -0.006000 0.000000 -0.006000 -0.006000 0.000000 -0.009000 -0.005999 0.000000 -0.006000 -0.005999 0.000000 -0.006000 -0.006000 0.000000 -0.006000 -0.006000 0.000000 -0.006000 -0.005999 0.000000 -0.003000 -0.005996 0.000000 -0.006000 0.000000 0.000000 -0.006000 0.000077 0.000000 -0.006000 0.006000 0.000000 -0.006000 0.006000 0.000000 -0.006000 0.006000 0.000000 -0.006000 0.006000 0.000000 -0.006000 0.006000 0.000000 -0.006000 0.006000 0.000000 -0.006000 0.006000 0.000000 -0.006000 0.006014 0.000000 0.000000 0.009155 0.000000 -0.006000 -0.009000 0.000000 -0.006000 -0.090000 0.000000 -0.006000 -0.090000 0.000000 -0.009000 -0.096001 0.000000 -0.006001 -0.075001 0.000000 -0.005999 -0.078000 0.000000 -0.005999 -0.090000 0.000000 -0.006000 -0.090001 0.000000 -0.003002 -0.084214 0.000000 -0.005998 -0.107793 0.000000 -0.000000 -0.114134 0.000000 -0.006000 -0.089956 0.000000 -0.006000 -0.137998 0.000000 -0.006000 -0.131992 0.000000 -0.006000 -0.192008 0.000000 -0.006000 -0.221990 0.000000 -0.006000 -0.225017 0.000000 -0.006000 -0.183018 0.000000 -0.006066 -0.284604 0.000000 -0.001315 -7.574645 0.000000 -0.006000 -0.009000 0.000000 -0.006000 -0.090000 0.000000 -0.006000 -0.075000 0.000000 -0.006000 -0.078000 0.000000 -0.006000 -0.090000 0.000000 -0.005999 -0.081000 0.000000 -0.005999 -0.087000 0.000000 -0.006000 -0.072000 0.000000 -0.006002 -0.090194 0.000000 -0.005998 -0.107808 0.000000 0.000000 -0.114050 0.000000 -0.006001 -0.089956 0.000000 -0.006000 -0.137999 0.000000 -0.006000 -0.131991 0.000000 -0.006000 -0.192009 0.000000 -0.006000 -0.221990 0.000000 -0.006000 -0.240017 0.000000 -0.006000 -0.171019 0.000000 -0.012081 -0.281233 0.000000 0.000863 -7.544282 0.000000 -0.006000 -0.009000 0.000000 -0.006000 -0.090000 0.000000 -0.006000 -0.081000 0.000000 -0.009000 -0.078000 0.000000 -0.006000 -0.087000 0.000000 -0.005999 -0.081000 0.000000 -0.005999 -0.087000 0.000000 -0.006000 -0.075000 0.000000 -0.000002 -0.090198 0.000000 -0.005999 -0.107805 0.000000 0.006001 -0.114054 0.000000 -0.006001 -0.089956 0.000000 -0.006000 -0.137999 0.000000 -0.006000 -0.131991 0.000000 -0.006000 -0.192009 0.000000 -0.006000 -0.221990 0.000000 -0.006000 -0.240017 0.000000 -0.006000 -0.168018 0.000000 -0.006088 -0.283799 0.000000 0.000848 -7.464612 0.000000 -0.006000 -0.009000 0.000000 -0.006000 -0.078000 0.000000 -0.006000 -0.081000 0.000000 -0.009000 -0.081000 0.000000 -0.006203 -0.078000 0.000000 0.000216 -0.078000 0.000000 0.000280 -0.087000 0.000000 -0.006292 -0.087000 0.000000 -0.006001 -0.093195 0.000000 -0.006000 -0.107808 0.000000 0.000001 -0.114052 0.000000 -0.006001 -0.089956 0.000000 -0.006000 -0.137999 0.000000 -0.006000 -0.131991 0.000000 -0.006000 -0.192009 0.000000 -0.006000 -0.221990 0.000000 -0.006000 -0.240017 0.000000 -0.006000 -0.171019 0.000000 -0.006092 -0.281233 0.000000 0.000885 -7.544290 0.000000 -0.006000 -0.009000 0.000000 -0.006000 -0.078000 0.000000 -0.006000 -0.081000 0.000000 -0.006000 -0.081000 0.000000 -0.006203 -0.078000 0.000000 0.000216 -0.078000 0.000000 0.000281 -0.087000 0.000000 -0.006293 -0.087000 0.000000 -0.006001 -0.093195 0.000000 -0.006000 -0.107808 0.000000 -0.005997 -0.114053 0.000000 -0.006002 -0.089956 0.000000 -0.006000 -0.137999 0.000000 -0.006000 -0.131991 0.000000 -0.006000 -0.192009 0.000000 -0.006000 -0.221990 0.000000 -0.006000 -0.240017 0.000000 