<VTKFile type="UnstructuredGrid" version="0.1" byte_order="LittleEndian">
  <UnstructuredGrid>
    <Piece NumberOfPoints="2000" NumberOfCells="0">
      <Points>
        <DataArray name="Position" type="Float32" NumberOfComponents="3" format="ascii">
-0.003256 -0.001957 0.000000 -0.003256 0.998696 0.000000 -0.003256 1.998696 0.000000 -0.003256 2.998696 0.000000 -0.004393 3.998697 0.000000 -0.004527 4.998697 0.000000 -0.004513 5.998697 0.000000 -0.004548 6.998697 0.000000 -0.003247 7.998698 0.000000 -0.004547 9.000000 0.000000 -0.003243 10.000001 0.000000 -0.003242 11.001302 0.000000 -0.003244 12.001303 0.000000 -0.003244 13.001303 0.000000 -0.003244 14.001303 0.000000 -0.003238 15.001303 0.000000 -0.003238 16.001304 0.000000 -0.003238 17.001304 0.000000 -0.003238 18.001304 0.000000 -0.003238 19.001957 0.000000 0.998693 -0.001957 0.000000 0.998693 0.998696 0.000000 0.997831 1.998696 0.000000 0.997567 2.998696 0.000000 0.997312 3.998697 0.000000 0.996131 4.998697 0.000000 0.996201 5.998697 0.000000 0.997397 6.998697 0.000000 0.997532 7.998698 0.000000 0.997398 9.000000 0.000000 0.997498 10.000001 0.000000 0.997754 11.001302 0.000000 0.998687 12.001303 0.000000 0.998687 13.001303 0.000000 0.998687 14.001303 0.000000 0.998684 15.001303 0.000000 0.998684 16.001304 0.000000 0.998684 17.001304 0.000000 0.997559 18.001304 0.000000 0.997351 19.001957 0.000000 1.998696 -0.001957 0.000000 1.998696 0.998696 0.000000 1.998692 1.998696 0.000000 1.997571 2.998696 0.000000 1.997553 3.998697 0.000000 1.997389 4.998697 0.000000 1.997382 5.998697 0.000000 1.997401 6.998697 0.000000 1.997533 7.998698 0.000000 1.997401 9.000000 0.000000 1.997523 10.000001 0.000000 1.997784 11.001302 0.000000 1.998696 12.001303 0.000000 1.998696 13.001303 0.000000 1.998696 14.001303 0.000000 1.998696 15.001303 0.000000 1.998696 16.001304 0.000000 1.998696 17.001304 0.000000 1.997569 18.001304 0.000000 1.997365 19.001957 0.000000 2.998696 -0.001957 0.000000 2.998696 0.998696 0.000000 2.998695 1.998696 0.000000 2.997577 2.998696 0.000000 2.997588 3.998696 0.000000 2.997397 4.998697 0.000000 2.997399 5.998697 0.000000 2.997405 6.998697 0.000000 2.997535 7.998698 0.000000 2.997405 9.000000 0.000000 2.997527 10.000001 0.000000 2.997806 11.001302 0.000000 2.998696 12.001303 0.000000 2.998696 13.001303 0.000000 2.998696 14.001303 0.000000 2.998696 15.001303 0.000000 2.998696 16.001304 0.000000 2.998696 17.001304 0.000000 2.997586 18.001304 0.000000 2.997376 19.001957 0.000000 3.998696 -0.001957 0.000000 3.998696 0.998199 0.000000 3.998695 1.998303 0.000000 3.997645 2.998451 0.000000 3.997605 3.998539 0.000000 3.997398 4.998859 0.000000 3.997403 5.998946 0.000000 3.997548 6.999093 0.000000 3.997535 7.999194 0.000000 3.997799 9.000001 0.000000 3.997546 10.000004 0.000000 3.997829 11.000898 0.000000 3.998696 12.001303 0.000000 3.998696 13.001303 0.000000 3.998696 14.001303 0.000000 3.998696 15.001304 0.000000 3.998696 16.001304 0.000000 3.998696 17.001305 0.000000 3.997594 18.001709 0.000000 3.997387 19.001957 0.000000 4.998697 -0.007078 0.000000 4.998697 0.996077 0.000000 4.998695 1.996097 0.000000 4.998690 2.996098 0.000000 4.998538 3.997380 0.000000 4.997400 4.997395 0.000000 4.997435 5.997403 0.000000 4.997576 6.997412 0.000000 4.997572 7.998135 0.000000 4.997819 8.998694 0.000000 4.997548 9.999248 0.000000 4.997829 10.999994 0.000000 4.998697 12.001303 0.000000 4.998697 13.001303 0.000000 4.998697 14.001303 0.000000 4.998697 15.001303 0.000000 4.998697 16.001304 0.000000 4.998697 17.001304 0.000000 4.997614 18.001304 0.000000 4.997412 19.001957 0.000000 5.998698 -0.003249 0.000000 5.998698 0.997432 0.000000 5.998698 1.998198 0.000000 5.998698 2.998532 0.000000 5.998694 3.998694 0.000000 5.997405 4.998866 0.000000 5.997440 5.999196 0.000000 5.998688 6.999509 0.000000 5.998113 7.999969 0.000000 5.998021 9.000003 0.000000 5.997564 10.000499 0.000000 5.997889 11.000966 0.000000 5.998697 12.001303 0.000000 5.998697 13.001303 0.000000 5.998697 14.001303 0.000000 5.998697 15.001304 0.000000 5.998697 16.001304 0.000000 5.998697 17.001305 0.000000 5.997615 18.001642 0.000000 5.998030 19.001957 0.000000 6.998698 -0.001957 0.000000 6.998698 0.998174 0.000000 6.998698 1.998264 0.000000 6.998698 2.998696 0.000000 6.998699 3.998697 0.000000 6.998001 4.998697 0.000000 6.997849 5.998697 0.000000 6.998693 6.999125 0.000000 6.998118 7.999218 0.000000 6.998687 8.999999 0.000000 6.998096 10.000001 0.000000 6.998223 11.001302 0.000000 6.998697 12.001303 0.000000 6.998697 13.001303 0.000000 6.998697 14.001303 0.000000 6.998697 15.001303 0.000000 6.998697 16.001304 0.000000 6.998697 17.001304 0.000000 6.997615 18.001304 0.000000 6.998032 19.001957 0.000000 7.998698 -0.001957 0.000000 7.998698 0.998696 0.000000 7.998698 1.998696 0.000000 7.998698 2.998696 0.000000 7.998700 3.998696 0.000000 7.998687 4.998697 0.000000 7.998687 5.998697 0.000000 7.998694 6.998697 0.000000 7.998121 7.998698 0.000000 7.998693 8.999999 0.000000 7.998104 10.000001 0.000000 7.998234 11.001302 0.000000 7.998697 12.001303 0.000000 7.998697 13.001303 0.000000 7.998697 14.001303 0.000000 7.998697 15.001303 0.000000 7.998697 16.001304 0.000000 7.998697 17.001304 0.000000 7.997619 18.001304 0.000000 7.998035 19.001957 0.000000 8.998698 -0.001957 0.000000 8.998698 0.998696 0.000000 8.998698 1.998696 0.000000 8.998698 2.998696 0.000000 8.998700 3.998697 0.000000 8.998694 4.998697 0.000000 8.998694 5.998697 0.000000 8.998694 6.998697 0.000000 8.998125 7.998698 0.000000 8.998694 9.000000 0.000000 8.998109 10.000001 0.000000 8.998238 11.001302 0.000000 8.998698 12.001303 0.000000 8.998698 13.001303 0.000000 8.998698 14.001303 0.000000 8.998698 15.001303 0.000000 8.998698 16.001304 0.000000 8.998698 17.001304 0.000000 8.997649 18.001304 0.000000 8.998037 19.001957 0.000000 9.998699 -0.001957 0.000000 9.998699 0.998696 0.000000 9.998699 1.998696 0.000000 9.998699 2.998696 0.000000 9.998700 3.998697 0.000000 9.998695 4.998697 0.000000 9.998696 5.998697 0.000000 9.998697 6.998697 0.000000 9.998685 7.998698 0.000000 9.998694 9.000000 0.000000 9.998111 10.000001 0.000000 9.998240 11.001302 0.000000 9.998698 12.001303 0.000000 9.998698 13.001303 0.000000 9.998698 14.001303 0.000000 9.998698 15.001303 0.000000 9.998698 16.001304 0.000000 9.998698 17.001304 0.000000 9.998132 18.001304 0.000000 9.998041 19.001957 0.000000 10.998699 -0.001957 0.000000 10.998699 0.998696 0.000000 10.998699 1.998696 0.000000 10.998699 2.998696 0.000000 10.998700 3.998697 0.000000 10.998702 4.998697 0.000000 10.998702 5.998697 0.000000 10.998700 6.998697 0.000000 10.998700 7.998698 0.000000 10.998700 9.000000 0.000000 10.998111 10.000001 0.000000 10.998249 11.001302 0.000000 10.998698 12.001303 0.000000 10.998698 13.001303 0.000000 10.998698 14.001303 0.000000 10.998698 15.001303 0.000000 10.998698 16.001304 0.000000 10.998698 17.001304 0.000000 10.998133 18.001304 0.000000 10.998043 19.001957 0.000000 11.998699 -0.001957 0.000000 11.998699 0.998696 0.000000 11.998699 1.998696 0.000000 11.998699 2.998696 0.000000 11.998701 3.998697 0.000000 11.998702 4.998697 0.000000 11.998702 5.998697 0.000000 11.998700 6.998697 0.000000 11.998700 7.998698 0.000000 11.998700 9.000000 0.000000 11.998113 10.000001 0.000000 11.998251 11.001302 0.000000 11.998699 12.001303 0.000000 11.998699 13.001303 0.000000 11.998699 14.001303 0.000000 11.998699 15.001303 0.000000 11.998699 16.001304 0.000000 11.998699 17.001304 0.000000 11.998140 18.001304 0.000000 11.998053 19.001957 0.000000 12.998700 -0.001957 0.000000 12.998700 0.998696 0.000000 12.998700 1.998696 0.000000 12.998700 2.998696 0.000000 12.998701 3.998697 0.000000 12.998702 4.998697 0.000000 12.998702 5.998697 0.000000 12.998701 6.998697 0.000000 12.998701 7.998698 0.000000 12.998701 9.000000 0.000000 12.998683 10.000001 0.000000 12.998681 11.001302 0.000000 12.998699 12.001303 0.000000 12.998699 13.001303 0.000000 12.998699 14.001303 0.000000 12.998699 15.001303 0.000000 12.998699 16.001304 0.000000 12.998699 17.001304 0.000000 12.998142 18.001304 0.000000 12.998055 19.001957 0.000000 13.998700 -0.001957 0.000000 13.998700 0.998696 0.000000 13.998700 1.998696 0.000000 13.998700 2.998696 0.000000 13.998701 3.998697 0.000000 13.998702 4.998697 0.000000 13.998702 5.998697 0.000000 13.998701 6.998697 0.000000 13.998701 7.998698 0.000000 13.998701 9.000000 0.000000 13.998693 10.000001 0.000000 13.998691 11.001302 0.000000 13.998699 12.001303 0.000000 13.998699 13.001303 0.000000 13.998699 14.001303 0.000000 13.998699 15.001303 0.000000 13.998699 16.001304 0.000000 13.998699 17.001304 0.000000 13.998144 18.001304 0.000000 13.998682 19.001957 0.000000 14.998700 -0.001957 0.000000 14.998700 0.998696 0.000000 14.998700 1.998696 0.000000 14.998700 2.998696 0.000000 14.998702 3.998697 0.000000 14.998703 4.998697 0.000000 14.998703 5.998697 0.000000 14.998701 6.998697 0.000000 14.998701 7.998698 0.000000 14.998701 9.000000 0.000000 14.998693 10.000001 0.000000 14.998693 11.001302 0.000000 14.998700 12.001303 0.000000 14.998700 13.001303 0.000000 14.998700 14.001303 0.000000 14.998700 15.001303 0.000000 14.998700 16.001304 0.000000 14.998700 17.001304 0.000000 14.998146 18.001304 0.000000 14.998694 19.001957 0.000000 15.998700 -0.001957 0.000000 15.998700 0.998696 0.000000 15.998700 1.998696 0.000000 15.998700 2.998696 0.000000 15.998702 3.998697 0.000000 15.998703 4.998697 0.000000 15.998703 5.998697 0.000000 15.998702 6.998697 0.000000 15.998702 7.998698 0.000000 15.998702 9.000000 0.000000 15.998696 10.000001 0.000000 15.998696 11.001302 0.000000 15.998701 12.001303 0.000000 15.998701 13.001303 0.000000 15.998701 14.001303 0.000000 15.998700 15.001303 0.000000 15.998700 16.001304 0.000000 15.998700 17.001304 0.000000 15.998171 18.001304 0.000000 15.998694 19.001957 0.000000 16.998701 -0.001957 0.000000 16.998701 0.998696 0.000000 16.998701 1.998696 0.000000 16.998701 2.998696 0.000000 16.998702 3.998697 0.000000 16.998703 4.998697 0.000000 16.998703 5.998697 0.000000 16.998702 6.998697 0.000000 16.998702 7.998698
[...]
      <PointData Vectors="vector">
        <DataArray type="Float32" Name="Velocity" NumberOfComponents="3" format="ascii">
-0.015000 -0.009000 0.000000 -0.015000 -0.006000 0.000000 -0.015000 -0.006000 0.000000 -0.015000 -0.006000 0.000000 -0.021000 -0.006000 0.000000 -0.021000 -0.006000 0.000000 -0.021000 -0.006000 0.000000 -0.021000 -0.006000 0.000000 -0.015000 -0.006000 0.000000 -0.021000 0.000000 0.000000 -0.015000 0.000000 0.000000 -0.015000 0.006000 0.000000 -0.015000 0.006000 0.000000 -0.015000 0.006000 0.000000 -0.015000 0.006000 0.000000 -0.015000 0.006000 0.000000 -0.015000 0.006000 0.000000 -0.015000 0.006000 0.000000 -0.015000 0.006000 0.000000 -0.015000 0.009000 0.000000 -0.006000 -0.009000 0.000000 -0.006000 -0.006000 0.000000 -0.018000 -0.006000 0.000000 -0.018000 -0.006000 0.000000 -0.012000 -0.006000 0.000000 -0.018000 -0.006000 0.000000 -0.018000 -0.006000 0.000000 -0.012000 -0.006000 0.000000 -0.018000 -0.006000 0.000000 -0.012000 0.000000 0.000000 -0.018000 0.000000 0.000000 -0.018000 0.006000 0.000000 -0.006000 0.006000 0.000000 -0.006000 0.006000 0.000000 -0.006000 0.006000 0.000000 -0.006000 0.006000 0.000000 -0.006000 0.006000 0.000000 -0.006000 0.006000 0.000000 -0.018000 0.006000 0.000000 -0.018000 0.009000 0.000000 -0.006000 -0.009000 0.000000 -0.006000 -0.006000 0.000000 -0.006000 -0.006000 0.000000 -0.018000 -0.006000 0.000000 -0.018000 -0.006000 0.000000 -0.012000 -0.006000 0.000000 -0.012000 -0.006000 0.000000 -0.012000 -0.006000 0.000000 -0.018000 -0.006000 0.000000 -0.012000 0.000000 0.000000 -0.018000 0.000000 0.000000 -0.018000 0.006000 0.000000 -0.006000 0.006000 0.000000 -0.006000 0.006000 0.000000 -0.006000 0.006000 0.000000 -0.006000 0.006000 0.000000 -0.006000 0.006000 0.000000 -0.006000 0.006000 0.000000 -0.018000 0.006000 0.000000 -0.018000 0.009000 0.000000 -0.006000 -0.009000 0.000000 -0.006000 -0.006000 0.000000 -0.006000 -0.006000 0.000000 -0.018000 -0.006000 0.000000 -0.018000 -0.006000 0.000000 -0.012000 -0.006000 0.000000 -0.012000 -0.006000 0.000000 -0.012000 -0.006000 0.000000 -0.018000 -0.006000 0.000000 -0.012000 -0.000000 0.000000 -0.018000 -0.000000 0.000000 -0.018000 0.006000 0.000000 -0.006000 0.006000 0.000000 -0.006000 0.006000 0.000000 -0.006000 0.006000 0.000000 -0.006000 0.006000 0.000000 -0.006000 0.006000 0.000000 -0.006000 0.006000 0.000000 -0.018000 0.006000 0.000000 -0.018000 0.009000 0.000000 -0.006000 -0.009000 0.000000 -0.006000 -0.012000 0.000000 -0.005998 -0.011979 0.000000 -0.018001 -0.011929 0.000000 -0.017988 -0.011972 0.000000 -0.012013 0.000000 0.000000 -0.012007 0.000001 0.000000 -0.017993 0.000009 0.000000 -0.018000 0.000000 0.000000 -0.018000 0.000010 0.000000 -0.018000 0.000034 0.000000 -0.018000 0.000041 0.000000 -0.006000 0.006000 0.000000 -0.006000 0.006000 0.000000 -0.006000 0.006000 0.000000 -0.006000 0.006000 0.000000 -0.006000 0.006000 0.000000 -0.005998 0.006000 0.000000 -0.018002 0.012000 0.000000 -0.018000 0.009000 0.000000 -0.006000 -0.033000 0.000000 -0.006000 -0.018000 0.000000 -0.006000 -0.018020 0.000000 -0.006000 -0.018071 0.000000 -0.012000 -0.012035 0.000000 -0.012001 -0.012001 0.000000 -0.012000 -0.012001 0.000000 -0.018000 -0.012042 0.000000 -0.018000 -0.012044 0.000000 -0.018000 -0.006031 0.000000 -0.018000 -0.000078 0.000000 -0.018000 -0.000092 0.000000 -0.006000 0.006000 0.000000 -0.006000 0.006000 0.000000 -0.006000 0.006000 0.000000 -0.006000 0.006000 0.000000 -0.006000 0.006000 0.000000 -0.006000 0.006000 0.000000 -0.018000 0.006000 0.000000 -0.018000 0.009000 0.000000 -0.006000 -0.015000 0.000000 -0.006000 -0.012000 0.000000 -0.006000 -0.011981 0.000000 -0.006000 -0.011929 0.000000 -0.011988 -0.005958 0.000000 -0.012012 0.000000 0.000000 -0.012000 0.000001 0.000000 -0.005999 -0.005949 0.000000 -0.012001 0.000091 0.000000 -0.017999 0.000021 0.000000 -0.018001 0.006043 0.000000 -0.018001 0.000051 0.000000 -0.005999 0.006000 0.000000 -0.006000 0.006000 0.000000 -0.006000 0.006000 0.000000 -0.006000 0.006000 0.000000 -0.006000 0.006000 0.000000 -0.005998 0.006000 0.000000 -0.018002 0.012000 0.000000 -0.012000 0.009000 0.000000 -0.006000 -0.009000 0.000000 -0.006000 -0.012000 0.000000 -0.006000 -0.011999 0.000000 -0.006000 -0.006000 0.000000 -0.006000 -0.006000 0.000000 -0.018000 -0.006000 0.000000 -0.018000 -0.006000 0.000000 -0.006000 -0.000017 0.000000 -0.012000 -0.000048 0.000000 -0.006000 -0.000000 0.000000 -0.012000 -0.000000 0.000000 -0.012000 0.006000 0.000000 -0.006000 0.006000 0.000000 -0.006000 0.006000 0.000000 -0.006000 0.006000 0.000000 -0.006000 0.006000 0.000000 -0.006000 0.006000 0.000000 -0.006000 0.006000 0.000000 -0.018000 0.006000 0.000000 -0.012000 0.009000 0.000000 -0.006000 -0.009000 0.000000 -0.006000 -0.006000 0.000000 -0.006000 -0.006000 0.000000 -0.006000 -0.006000 0.000000 -0.006000 -0.006000 0.000000 -0.006000 -0.006000 0.000000 -0.006000 -0.006000 0.000000 -0.006000 -0.006000 0.000000 -0.012000 -0.006000 0.000000 -0.006000 0.000000 0.000000 -0.012000 0.000000 0.000000 -0.012000 0.006000 0.000000 -0.006000 0.006000 0.000000 -0.006000 0.006000 0.000000 -0.006000 0.006000 0.000000 -0.006000 0.006000 0.000000 -0.006000 0.006000 0.000000 -0.006000 0.006000 0.000000 -0.018000 0.006000 0.000000 -0.012000 0.009000 0.000000 -0.006000 -0.009000 0.000000 -0.006000 -0.006000 0.000000 -0.006000 -0.006000 0.000000 -0.006000 -0.006000 0.000000 -0.006000 -0.006000 0.000000 -0.006000 -0.006000 0.000000 -0.006000 -0.006000 0.000000 -0.006000 -0.006000 0.000000 -0.012000 -0.006000 0.000000 -0.006000 0.000000 0.000000 -0.012000 0.000000 0.000000 -0.012000 0.006000 0.000000 -0.006000 0.006000 0.000000 -0.006000 0.006000 0.000000 -0.006000 0.006000 0.000000 -0.006000 0.006000 0.000000 -0.006000 0.006000 0.000000 -0.006000 0.006000 0.000000 -0.018000 0.006000 0.000000 -0.012000 0.009000 0.000000 -0.006000 -0.009000 0.000000 -0.006000 -0.006000 0.000000 -0.006000 -0.006000 0.000000 -0.006000 -0.006000 0.000000 -0.006000 -0.006000 0.000000 -0.006000 -0.006000 0.000000 -0.006000 -0.006000 0.000000 -0.006000 -0.006000 0.000000 -0.006000 -0.006000 0.000000 -0.006000 -0.000000 0.000000 -0.012000 0.000000 0.000000 -0.012000 0.006000 0.000000 -0.006000 0.006000 0.000000 -0.006000 0.006000 0.000000 -0.006000 0.006000 0.000000 -0.006000 0.006000 0.000000 -0.006000 0.006000 0.000000 -0.006000 0.006000 0.000000 -0.012000 0.006000 0.000000 -0.012000 0.009000 0.000000 -0.006000 -0.009000 0.000000 -0.006000 -0.006000 0.000000 -0.006000 -0.006000 0.000000 -0.006000 -0.006000 0.000000 -0.006000 -0.006000 0.000000 -0.006000 -0.006000 0.000000 -0.006000 -0.006000 0.000000 -0.006000 -0.006000 0.000000 -0.006000 -0.006000 0.000000 -0.006000 0.000000 0.000000 -0.012000 0.000000 0.000000 -0.012000 0.006000 0.000000 -0.006000 0.006000 0.000000 -0.006000 0.006000 0.000000 -0.006000 0.006000 0.000000 -0.006000 0.006000 0.000000 -0.006000 0.006000 0.000000 -0.006000 0.006000 0.000000 -0.012000 0.006000 0.000000 -0.012000 0.009000 0.000000 -0.006000 -0.009000 0.000000 -0.006000 -0.006000 0.000000 -0.006000 -0.006000 0.000000 -0.006000 -0.006000 0.000000 -0.006000 -0.006000 0.000000 -0.006000 -0.006000 0.000000 -0.006000 -0.006000 0.000000 -0.006000 -0.006000 0.000000 -0.006000 -0.006000 0.000000 -0.006000 0.000000 0.000000 -0.012000 0.000000 0.000000 -0.012000 0.006000 0.000000 -0.006000 0.006000 0.000000 -0.006000 0.006000 0.000000 -0.006000 0.006000 0.000000 -0.006000 0.006000 0.000000 -0.006000 0.006000 0.000000 -0.006000 0.006000 0.000000 -0.012000 0.006000 0.000000 -0.012000 0.009000 0.000000 -0.006000 -0.009000 0.000000 -0.006000 -0.006000 0.000000 -0.006000 -0.006000 0.000000 -0.006000 -0.006000 0.000000 -0.006000 -0.006000 0.000000 -0.006000 -0.006000 0.000000 -0.006000 -0.006000 0.000000 -0.006000 -0.006000 0.000000 -0.006000 -0.006000 0.000000 -0.006000 0.000000 0.000000 -0.006000 0.000000 0.000000 -0.006000 0.006000 0.000000 -0.006000 0.006000 0.000000 -0.006000 0.006000 0.000000 -0.006000 0.006000 0.000000 -0.006000 0.006000 0.000000 -0.006000 0.006000 0.000000 -0.006000 0.006000 0.000000 -0.012000 0.006000 0.000000 -0.012000 0.009000 0.000000 -0.006000 -0.009000 0.000000 -0.006000 -0.006000 0.000000 -0.006000 -0.006000 0.000000 -0.006000 -0.006000 0.000000 -0.006000 -0.006000 0.000000 -0.006000 -0.006000 0.000000 -0.006000 -0.006000 0.000000 -0.006000 -0.006000 0.000000 -0.006000 -0.006000 0.000000 -0.006000 0.000000 0.000000 -0.006000 0.000000 0.000000 -0.006000 0.006000 0.000000 -0.006000 0.006000 0.000000 -0.006000 0.006000 0.000000 -0.006000 0.006000 0.000000 -0.006000 0.006000 0.000000 -0.006000 0.006000 0.000000 -0.006000 0.006000 0.000000 -0.012000 0.006000 0.000000 -0.006000 0.009000 0.000000 -0.006000 -0.009000 0.000000 -0.006000 -0.006000 0.000000 -0.006000 -0.006000 0.000000 -0.006000 -0.006000 0.000000 -0.006000 -0.006000 0.000000 -0.006000 -0.006000 0.000000 -0.006000 -0.006000 0.000000 -0.006000 -0.006000 0.000000 -0.006000 -0.006000 0.000000 -0.006000 0.000000 0.000000 -0.006000 0.000000 0.000000 -0.006000 0.006000 0.000000 -0.006000 0.006000 0.000000 -0.006000 0.006000 0.000000 -0.006000 0.006000 0.000000 -0.006000 0.006000 0.000000 -0.006000 0.006000 0.000000 -0.006000 0.006000 0.000000 -0.012000 0.006000 0.000000 -0.006000 0.009000 0.000000 -0.006000 -0.009000 0.000000 -0.006000 -0.006000 0.000000 -0.006000 -0.006000 0.000000 -0.006000 -0.006000 0.000000 -0.006000 -0.006000 0.000000 -0.006000 -0.006000 0.000000 -0.006000 -0.006000 0.000000 -0.006000 -0.006000 0.000000 -0.006000 -0.006000 0.000000 -0.006000 0.000000 0.000000 -0.006000 0.000000 0.000000 -0.006000 0.006000 0.000000 -0.006000 0.006000 0.000000 -0.006000 0.006000 0.000000 -0.006000 0.006000 0.000000 -0.006000 0.006000 0.000000 -0.006000 0.006000 0.000000 -0.006000 0.006000 0.000000 -0.012000 0.006000 0.000000 -0.006000 0.009000 0.000000 -0.006000 -0.009000 0.000000 -0.006000 -0.006000 0.000000 -0.006000 -0.006000 0.000000 -0.006000 -0.006000 0.000000 -0.006000 -0.006000 0.000000 -0.006000 -0.006000 0.000000 -0.006000 -0.006000 0.000000 -0.006000 -0.006000 0.000000 -0.006000 -0.006000 0.000000 -0.006000 0.000000 0.000000 -0.006000 0.000000 0.000000 -0.006000 0.006000 0.000000 -0.006000 0.006000 0.000000 -0.006000 0.006000 0.000000 -0.006000 0.006000 0.000000 -0.006000 0.006000 0.000000 -0.006000 0.006000 0.000000 -0.006000 0.006000 0.000000 -0.012000 0.006000 0.000000 -0.006000 0.009000 0.000000 -0.006000 -0.009000 0.000000 -0.006000 -0.006000 0.000000 -0.006000 -0.006000 0.000000 -0.006000 -0.006000 0.000000 -0.006000 -0.006000 0.000000 -0.006000 -0.006000 0.000000 -0.006000 -0.006000 0.000000 -0.006000 -0.006000 0.000000 -0.006000 -0.006000 0.000000 -0.006000 0.000000 0.000000 -0.006000 0.000000 0.000000 -0.006000 0.006000 0.000000 -0.006000 0.006000 0.000000 -0.006000 0.006000 0.000000 -0.006000 0.006000 0.000000 -0.006000 0.006000 0.000000 -0.006000 0.006000 0.000000 -0.006000 0.006000 0.000000 -0.006000 0.006000 0.000000 -0.006000 0.009000 0.000000 -0.006000 -0.009000 0.000000 -0.006000 -0.006000 0.000000 -0.006000 -0.006000 0.000000 -0.006000 -0.006000 0.000000 -0.006000 -0.006000 0.000000 -0.006000 -0.006000 0.000000 -0.006000 -0.006000 0.000000 -0.006000 -0.006000 0.000000 -0.006000 -0.006000 0.000000 -0.006000 0.000000 0.000000 -0.006000 0.000000 0.000000 -0.006000 0.006000 0.000000 -0.006000 0.006000 0.000000 -0.006000 0.006000 0.000000 -0.006000 0.006000 0.000000 -0.006000 0.006000 0.000000 -0.006000 0.006000 0.000000 -0.006000 0.006000 0.000000 -0.006000 0.006000 0.000000 -0.006000 0.009000 0.000000 -0.006000 -0.009000 0.000000 -0.006000 -0.006000 0.000000 -0.006000 -0.006000 0.000000 -0.006000 -0.006000 0.000000 -0.006000 -0.006000 0.000000 -0.006000 -0.006000 0.000000 -0.006000 -0.006000 0.000000 -0.006000 -0.006000 0.000000 -0.006000 -0.006000 0.000000 -0.006000 0.000000 0.000000 -0.006000 0.000000 0.000000 -0.006000 0.006000 0.000000 -0.006000 0.006000 0.000000 -0.006000 0.006000 0.000000 -0.006000 0.006000 0.000000 -0.006000 0.006000 0.000000 -0.006000 0.006000 0.000000 -0.006000 0.006000 0.000000 -0.006000 0.006000 0.000000 -0.006000 0.009000 0.000000 -0.006000 -0.009000 0.000000 -0.006000 -0.006000 0.000000 -0.006000 -0.006000 0.000000 -0.006000 -0.006000 0.000000 -0.003000 -0.006000 0.000000 -0.006000 -0.006000 0.000000 -0.006000 -0.006000 0.000000 -0.006000 -0.006000 0.000000 -0.006000 -0.006000 0.000000 -0.006000 0.000000 0.000000 -0.006000 0.000000 0.000000 -0.006000 0.006000 0.000000 -0.006000 0.006000 0.000000 -0.006000 0.006000 0.000000 -0.006000 0.006000 0.000000 -0.006000 0.006000 0.000000 -0.006000 0.006000 0.000000 -0.006000 0.006000 0.000000 -0.006000 0.006000 0.000000 -0.006000 0.009000 0.000000 -0.006000 -0.009000 0.000000 -0.006000 -0.006000 0.000000 -0.006000 -0.006000 0.000000 -0.006000 -0.006000 0.000000 -0.003000 -0.006000 0.000000 -0.006000 -0.006000 0.000000 -0.006000 -0.006000 0.000000 -0.006000 -0.006000 0.000000 -0.006000 -0.006000 0.000000 -0.006000 0.000000 0.000000 -0.006000 0.000000 0.000000 -0.006000 0.006000 0.000000 -0.006000 0.006000 0.000000 -0.006000 0.006000 0.000000 -0.006000 0.006000 0.000000 -0.006000 0.006000 0.000000 -0.006000 0.006000 0.000000 -0.006000 0.006000 0.000000 0.000000 0.006000 0.000000 -0.006000 0.009000 0.000000 -0.006000 -0.009000 0.000000 -0.006000 -0.006000 0.000000 -0.006000 -0.006000 0.000000 -0.006000 -0.006000 0.000000 -0.006000 -0.006000 0.000000 -0.006000 -0.006000 0.000000 -0.006000 -0.006000 0.000000 -0.006000 -0.006000 0.000000 -0.006000 -0.006000 0.000000 -0.006000 0.000000 0.000000 -0.006000 0.000000 0.000000 -0.006000 0.006000 0.000000 -0.006000 0.006000 0.000000 -0.006000 0.006000 0.000000 -0.006000 0.006000 0.000000 -0.006000 0.006000 0.000000 -0.006000 0.006000 0.000000 -0.006000 0.006000 0.000000 0.000000 0.006000 0.000000 -0.006000 0.009000 0.000000 -0.006000 -0.009000 0.000000 -0.006000 -0.006000 0.000000 -0.006000 -0.006000 0.000000 -0.006000 -0.006000 0.000000 -0.006000 -0.006000 0.000000 -0.006000 -0.006000 0.000000 -0.006000 -0.006000 0.000000 -0.006000 -0.006000 0.000000 -0.006000 -0.006000 0.000000 -0.006000 0.000000 0.000000 -0.006000 0.000000 0.000000 -0.006000 0.006000 0.000000 -0.006000 0.006000 0.000000 -0.006000 0.006000 0.000000 -0.006000 0.006000 0.000000 -0.006000 0.006000 0.000000 -0.006000 0.006000 0.000000 -0.006000 0.006000 0.000000 -0.000000 0.006000 0.000000 -0.006000 0.009000 0.000000 -0.006000 -0.009000 0.000000 -0.006000 -0.006000 0.000000 -0.006000 -0.006000 0.000000 -0.006000 -0.006000 0.000000 -0.006000 -0.006000 0.000000 -0.006000 -0.006000 0.000000 -0.006000 -0.006000 0.000000 -0.006000 -0.006000 0.000000 -0.006000 -0.006000 0.000000 -0.006000 0.000000 0.000000 -0.006000 0.000000 0.000000 -0.006000 0.006000 0.000000 -0.006000 0.006000 0.000000 -0.006000 0.006000 0.000000 -0.006000 0.006000 0.000000 -0.006000 0.006000 0.000000 -0.006000 0.006000 0.000000 -0.006000 0.006000 0.000000 0.000000 0.006000 0.000000 -0.006000 0.009000 0.000000 -0.006000 -0.009000 0.000000 -0.006000 -0.006000 0.000000 -0.006000 -0.006000 0.000000 -0.006000 -0.006000 0.000000 -0.006000 -0.006000 0.000000 -0.006000 -0.006000 0.000000 -0.006000 -0.006000 0.000000 -0.006000 -0.006000 0.000000 -0.006000 -0.006000 0.000000 -0.006000 0.000000 0.000000 -0.006000 0.000000 0.000000 -0.000000 0.006000 0.000000 -0.006000 0.006000 0.000000 -0.006000 0.006000 0.000000 -0.006000 0.006000 0.000000 -0.006000 0.006000 0.000000 -0.006000 0.006000 0.000000 -0.006000 0.006000 0.000000 0.000000 0.006000 0.000000 0.000000 0.009000 0.000000 -0.006000 -0.009000 0.000000 -0.006000 -0.006000 0.000000 -0.006000 -0.006000 0.000000 -0.006000 -0.006000 0.000000 -0.006000 -0.006000 0.000000 -0.006000 -0.006000 0.000000 -0.006000 -0.006000 0.000000 -0.006000 -0.006000 0.000000 -0.006000 -0.006000 0.000000 -0.006000 0.000000 0.000000 -0.000000 0.000000 0.000000 0.000000 0.006000 0.000000 -0.006000 0.006000 0.000000 -0.006000 0.006000 0.000000 -0.006000 0.006000 0.000000 -0.006000 0.006000 0.000000 -0.006000 0.006000 0.000000 -0.006000 0.006000 0.000000 0.006000 0.006000 0.000000 -0.000000 0.009000 0.000000 -0.006000 -0.009000 0.000000 -0.006000 -0.006000 0.000000 -0.006000 -0.006000 0.000000 -0.006000 -0.006000 0.000000 -0.000000 -0.006000 0.000000 -0.006000 -0.006000 0.000000 -0.006000 -0.006000 0.000000 -0.006000 -0.006000 0.000000 -0.006000 -0.006000 0.000000 -0.006000 -0.000000 0.000000 -0.000000 -0.000000 0.000000 -0.000000 0.006001 0.000000 -0.006000 0.006000 0.000000 -0.006000 0.006000 0.000000 -0.006000 0.006000 0.000000 -0.006000 0.006000 0.000000 -0.006000 0.006000 0.000000 -0.006000 0.006000 0.000000 0.006000 0.006000 0.000000 -0.000000 0.009000 0.000000 -0.006000 -0.009000 0.000000 -0.006000 -0.012000 0.000000 -0.006000 -0.011939 0.000000 -0.006000 -0.011969 0.000000 -0.000001 -0.005980 0.000000 0.000002 -0.005948 0.000000 -0.006001 0.000066 0.000000 -0.006001 0.000007 0.000000 0.000001 0.000022 0.000000 -0.000001 -0.005817 0.000000 0.000002 0.006117 0.000000 0.000002 0.000501 0.000000 -0.006000 0.006000 0.000000 -0.006000 0.006000 0.000000 -0.006000 0.006000 0.000000 -0.006000 0.006000 0.000000 -0.006000 0.006000 0.000000 -0.006002 0.006000 0.000000 0.012002 0.012295 0.000000 0.000000 0.009155 0.000000 -0.005973 -0.837014 0.000000 -0.011890 -0.918016 0.000000 -0.012419 -0.846073 0.000000 -0.011636 -0.744046 0.000000 -0.012132 -0.927023 0.000000 -0.006080 -0.867083 0.000000 -0.005349 -0.876107 0.000000 -0.014552 -0.789030 0.000000 -0.001940 -0.768765 0.000000 -0.010819 -0.839708 0.000000 -0.001796 -0.852268 0.000000 -0.004883 -0.853040 0.000000 -0.015175 -0.792207 0.000000 -0.011678 -0.835994 0.000000 -0.015370 -9.568255 0.000000 -0.020365 -0.748193 0.000000 -0.008825 -9.419803 0.000000 -0.046737 -0.676728 0.000000 -0.058784 -9.272420 0.000000 0.122096 -0.601260 0.000000 -0.005979 -0.825014 0.000000 -0.011906 -0.912030 0.000000 -0.012363 -0.816007 0.000000 0.000210 -0.942011 0.000000 -0.005883 -0.834004 0.000000 -0.006809 -0.858087 0.000000 0.001428 -0.915025 0.000000 -0.008245 -0.768003 0.000000 -0.003249 -0.879637 0.000000 -0.008958 -0.824604 0.000000 0.003125 -0.803959 0.000000 -0.004826 -0.852758 0.000000 -0.015155 -0.809913 0.000000 -0.011590 -0.837330 0.000000 -0.005229 -9.664022 0.000000 -0.017713 -0.756040 0.000000 -0.002708 -9.669212 0.000000 -0.029973 -0.653790 0.000000 -0.052794 -9.633442 0.000000 0.122344 -0.508332 0.000000 -0.005993 -0.801009 0.000000 -0.011966 -0.933009 0.000000 -0.012483 -0.897044 0.000000 -0.005359 -0.858008 0.000000 -0.000508 -0.753019 0.000000 0.000134 -0.831015 0.000000 0.000606 -0.786059 0.000000 -0.001523 -0.801065 0.000000 -0.003842 -0.858645 0.000000 -0.002667 -0.881407 0.000000 0.002961 -0.852272 0.000000 0.000957 -0.804534 0.000000 -0.014835 -0.870269 0.000000 -0.011698 -0.860631 0.000000 -0.010789 -9.491358 0.000000 -0.006274 -0.792892 0.000000 0.002245 -9.719127 0.000000 -0.029461 -0.648084 0.000000 -0.049604 -9.639007 0.000000 0.126837 -0.510429 0.000000 -0.005997 -0.783018 0.000000 -0.012011 -0.881994 0.000000 -0.006490 -0.828012 0.000000 -0.005491 -0.771025 0.000000 -0.008530 -0.915023 0.000000 -0.003354 -0.771011 0.000000 -0.002679 -0.786018 0.000000 -0.010123 -0.846090 0.000000 0.001850 -0.930647 0.000000 -0.002865 -0.845539 0.000000 0.003219 -0.864042 0.000000 -0.005224 -0.828606 0.000000 -0.014840 -0.876098 0.000000 -0.011661 -0.923256 0.000000 -0.011815 -9.708164 0.000000 -0.010802 -0.828759 0.000000 0.000243 -9.685876 0.000000 -0.031788 -0.547276 0.000000 -0.040640 -9.631704 0.000000 0.129914 -0.509333 0.000000 -0.006000 -0.915032 0.000000 -0.006061 -0.797991 0.000000 -0.000382 -0.684013 0.000000 0.000490 -0.876020 0.000000 0.002827 -0.939022 0.000000 -0.002971 -0.789065 0.000000 -0.001405 -0.888000 0.000000 0.000834 -0.812990 0.000000 -0.004067 -0.840632 0.000000 -0.003104 -0.863523 0.000000 0.009605 -0.888248 0.000000 0.012017 -0.798459 0.000000 -0.007878 -0.900334 0.000000 -0.005904 -0.903357 0.000000 -0.006377 -9.615151 0.000000 -0.005940 -0.739100 0.000000 0.002077 -9.678384 0.000000 -0.029733 -0.651426 0.00000