<VTKFile type="UnstructuredGrid" version="0.1" byte_order="LittleEndian">
  <UnstructuredGrid>
    <Piece NumberOfPoints="2000" NumberOfCells="0">
      <Points>
        <DataArray name="Position" type="Float32" NumberOfComponents="3" format="ascii">
-0.003864 -0.002321 0.000000 -0.003864 0.998453 0.000000 -0.003864 1.998453 0.000000 -0.003864 2.998453 0.000000 -0.005244 3.998454 0.000000 -0.005378 4.998454 0.000000 -0.005363 5.998454 0.000000 -0.005399 6.998454 0.000000 -0.003855 7.998455 0.000000 -0.005398 9.000000 0.000000 -0.003851 10.000001 0.000000 -0.003850 11.001545 0.000000 -0.003852 12.001546 0.000000 -0.003852 13.001546 0.000000 -0.003852 14.001546 0.000000 -0.003846 15.001546 0.000000 -0.003846 16.001547 0.000000 -0.003846 17.001547 0.000000 -0.003846 18.001547 0.000000 -0.003846 19.002321 0.000000 0.998450 -0.002321 0.000000 0.998450 0.998453 0.000000 0.997102 1.998453 0.000000 0.996838 2.998453 0.000000 0.996824 3.998454 0.000000 0.995402 4.998454 0.000000 0.995472 5.998454 0.000000 0.996820 6.998454 0.000000 0.996803 7.998455 0.000000 0.996912 9.000000 0.000000 0.996769 10.000001 0.000000 0.997025 11.001545 0.000000 0.998444 12.001546 0.000000 0.998444 13.001546 0.000000 0.998444 14.001546 0.000000 0.998441 15.001546 0.000000 0.998441 16.001547 0.000000 0.998441 17.001547 0.000000 0.996830 18.001547 0.000000 0.996622 19.002321 0.000000 1.998453 -0.002321 0.000000 1.998453 0.998453 0.000000 1.998449 1.998453 0.000000 1.996842 2.998453 0.000000 1.996826 3.998454 0.000000 1.996903 4.998454 0.000000 1.996896 5.998454 0.000000 1.996850 6.998454 0.000000 1.996804 7.998455 0.000000 1.996915 9.000000 0.000000 1.996794 10.000001 0.000000 1.997055 11.001545 0.000000 1.998453 12.001546 0.000000 1.998453 13.001546 0.000000 1.998453 14.001546 0.000000 1.998453 15.001546 0.000000 1.998453 16.001547 0.000000 1.998453 17.001547 0.000000 1.996840 18.001547 0.000000 1.996636 19.002321 0.000000 2.998453 -0.002321 0.000000 2.998453 0.998453 0.000000 2.998452 1.998453 0.000000 2.996848 2.998453 0.000000 2.996859 3.998453 0.000000 2.996911 4.998454 0.000000 2.996913 5.998454 0.000000 2.996911 6.998454 0.000000 2.996806 7.998455 0.000000 2.996919 9.000000 0.000000 2.996798 10.000001 0.000000 2.997077 11.001545 0.000000 2.998453 12.001546 0.000000 2.998453 13.001546 0.000000 2.998453 14.001546 0.000000 2.998453 15.001546 0.000000 2.998453 16.001547 0.000000 2.998453 17.001547 0.000000 2.996857 18.001547 0.000000 2.996647 19.002321 0.000000 3.998453 -0.002321 0.000000 3.998453 0.997713 0.000000 3.998453 1.997818 0.000000 3.996916 2.997968 0.000000 3.996877 3.998054 0.000000 3.996912 4.998859 0.000000 3.996917 5.998946 0.000000 3.996914 6.999094 0.000000 3.996806 7.999194 0.000000 3.997070 9.000001 0.000000 3.996817 10.000005 0.000000 3.997100 11.000900 0.000000 3.998453 12.001546 0.000000 3.998453 13.001546 0.000000 3.998453 14.001546 0.000000 3.998453 15.001547 0.000000 3.998453 16.001547 0.000000 3.998453 17.001548 0.000000 3.996865 18.002195 0.000000 3.996658 19.002321 0.000000 4.998454 -0.008414 0.000000 4.998454 0.995025 0.000000 4.998452 1.995347 0.000000 4.998447 2.995708 0.000000 4.998052 3.996893 0.000000 4.996914 4.996909 0.000000 4.996949 5.996917 0.000000 4.996916 6.996924 0.000000 4.996843 7.997647 0.000000 4.997090 8.998450 0.000000 4.996819 9.999245 0.000000 4.997100 10.999990 0.000000 4.998454 12.001546 0.000000 4.998454 13.001546 0.000000 4.998454 14.001546 0.000000 4.998454 15.001546 0.000000 4.998454 16.001547 0.000000 4.998454 17.001547 0.000000 4.996885 18.001547 0.000000 4.996683 19.002321 0.000000 5.998455 -0.003857 0.000000 5.998455 0.996946 0.000000 5.998455 1.997713 0.000000 5.998455 2.998049 0.000000 5.998209 3.998452 0.000000 5.996919 4.998866 0.000000 5.996954 5.999196 0.000000 5.998445 6.999268 0.000000 5.997627 7.999972 0.000000 5.997292 9.000004 0.000000 5.996835 10.000744 0.000000 5.997160 11.000968 0.000000 5.998454 12.001546 0.000000 5.998454 13.001546 0.000000 5.998454 14.001546 0.000000 5.998454 15.001547 0.000000 5.998454 16.001547 0.000000 5.998454 17.001548 0.000000 5.996885 18.002128 0.000000 5.997544 19.002321 0.000000 6.998455 -0.002321 0.000000 6.998455 0.997688 0.000000 6.998455 1.997778 0.000000 6.998455 2.998453 0.000000 6.998456 3.998454 0.000000 6.997272 4.998454 0.000000 6.997120 5.998454 0.000000 6.998450 6.999124 0.000000 6.997632 7.999216 0.000000 6.998444 8.999999 0.000000 6.997610 10.000001 0.000000 6.997737 11.001545 0.000000 6.998454 12.001546 0.000000 6.998454 13.001546 0.000000 6.998454 14.001546 0.000000 6.998454 15.001546 0.000000 6.998454 16.001547 0.000000 6.998454 17.001547 0.000000 6.996886 18.001547 0.000000 6.997546 19.002321 0.000000 7.998455 -0.002321 0.000000 7.998455 0.998453 0.000000 7.998455 1.998453 0.000000 7.998455 2.998453 0.000000 7.998457 3.998453 0.000000 7.998444 4.998454 0.000000 7.998444 5.998454 0.000000 7.998451 6.998454 0.000000 7.997635 7.998455 0.000000 7.998450 8.999999 0.000000 7.997618 10.000001 0.000000 7.997748 11.001545 0.000000 7.998454 12.001546 0.000000 7.998454 13.001546 0.000000 7.998454 14.001546 0.000000 7.998454 15.001546 0.000000 7.998454 16.001547 0.000000 7.998454 17.001547 0.000000 7.996890 18.001547 0.000000 7.997549 19.002321 0.000000 8.998455 -0.002321 0.000000 8.998455 0.998453 0.000000 8.998455 1.998453 0.000000 8.998455 2.998453 0.000000 8.998457 3.998454 0.000000 8.998451 4.998454 0.000000 8.998451 5.998454 0.000000 8.998451 6.998454 0.000000 8.997639 7.998455 0.000000 8.998451 9.000000 0.000000 8.997623 10.000001 0.000000 8.997752 11.001545 0.000000 8.998455 12.001546 0.000000 8.998455 13.001546 0.000000 8.998455 14.001546 0.000000 8.998455 15.001546 0.000000 8.998455 16.001547 0.000000 8.998455 17.001547 0.000000 8.996920 18.001547 0.000000 8.997551 19.002321 0.000000 9.998456 -0.002321 0.000000 9.998456 0.998453 0.000000 9.998456 1.998453 0.000000 9.998456 2.998453 0.000000 9.998457 3.998454 0.000000 9.998452 4.998454 0.000000 9.998453 5.998454 0.000000 9.998454 6.998454 0.000000 9.998442 7.998455 0.000000 9.998451 9.000000 0.000000 9.997625 10.000001 0.000000 9.997754 11.001545 0.000000 9.998455 12.001546 0.000000 9.998455 13.001546 0.000000 9.998455 14.001546 0.000000 9.998455 15.001546 0.000000 9.998455 16.001547 0.000000 9.998455 17.001547 0.000000 9.997646 18.001547 0.000000 9.997555 19.002321 0.000000 10.998456 -0.002321 0.000000 10.998456 0.998453 0.000000 10.998456 1.998453 0.000000 10.998456 2.998453 0.000000 10.998457 3.998454 0.000000 10.998459 4.998454 0.000000 10.998459 5.998454 0.000000 10.998457 6.998454 0.000000 10.998457 7.998455 0.000000 10.998457 9.000000 0.000000 10.997625 10.000001 0.000000 10.997763 11.001545 0.000000 10.998455 12.001546 0.000000 10.998455 13.001546 0.000000 10.998455 14.001546 0.000000 10.998455 15.001546 0.000000 10.998455 16.001547 0.000000 10.998455 17.001547 0.000000 10.997647 18.001547 0.000000 10.997557 19.002321 0.000000 11.998456 -0.002321 0.000000 11.998456 0.998453 0.000000 11.998456 1.998453 0.000000 11.998456 2.998453 0.000000 11.998458 3.998454 0.000000 11.998459 4.998454 0.000000 11.998459 5.998454 0.000000 11.998457 6.998454 0.000000 11.998457 7.998455 0.000000 11.998457 9.000000 0.000000 11.997627 10.000001 0.000000 11.997765 11.001545 0.000000 11.998456 12.001546 0.000000 11.998456 13.001546 0.000000 11.998456 14.001546 0.000000 11.998456 15.001546 0.000000 11.998456 16.001547 0.000000 11.998456 17.001547 0.000000 11.997654 18.001547 0.000000 11.997567 19.002321 0.000000 12.998457 -0.002321 0.000000 12.998457 0.998453 0.000000 12.998457 1.998453 0.000000 12.998457 2.998453 0.000000 12.998458 3.998454 0.000000 12.998459 4.998454 0.000000 12.998459 5.998454 0.000000 12.998458 6.998454 0.000000 12.998458 7.998455 0.000000 12.998458 9.000000 0.000000 12.998440 10.000001 0.000000 12.998438 11.001545 0.000000 12.998456 12.001546 0.000000 12.998456 13.001546 0.000000 12.998456 14.001546 0.000000 12.998456 15.001546 0.000000 12.998456 16.001547 0.000000 12.998456 17.001547 0.000000 12.997656 18.001547 0.000000 12.997569 19.002321 0.000000 13.998457 -0.002321 0.000000 13.998457 0.998453 0.000000 13.998457 1.998453 0.000000 13.998457 2.998453 0.000000 13.998458 3.998454 0.000000 13.998459 4.998454 0.000000 13.998459 5.998454 0.000000 13.998458 6.998454 0.000000 13.998458 7.998455 0.000000 13.998458 9.000000 0.000000 13.998450 10.000001 0.000000 13.998448 11.001545 0.000000 13.998456 12.001546 0.000000 13.998456 13.001546 0.000000 13.998456 14.001546 0.000000 13.998456 15.001546 0.000000 13.998456 16.001547 0.000000 13.998456 17.001547 0.000000 13.997658 18.001547 0.000000 13.998439 19.002321 0.000000 14.998457 -0.002321 0.000000 14.998457 0.998453 0.000000 14.998457 1.998453 0.000000 14.998457 2.998453 0.000000 14.998459 3.998454 0.000000 14.998460 4.998454 0.000000 14.998460 5.998454 0.000000 14.998458 6.998454 0.000000 14.998458 7.998455 0.000000 14.998458 9.000000 0.000000 14.998450 10.000001 0.000000 14.998450 11.001545 0.000000 14.998457 12.001546 0.000000 14.998457 13.001546 0.000000 14.998457 14.001546 0.000000 14.998457 15.001546 0.000000 14.998457 16.001547 0.000000 14.998457 17.001547 0.000000 14.997660 18.001547 0.000000 14.998451 19.002321 0.000000 15.998457 -0.002321 0.000000 15.998457 0.998453 0.000000 15.998457 1.998453 0.000000 15.998457 2.998453 0.000000 15.998459 3.998454 0.000000 15.998460 4.998454 0.000000 15.998460 5.998454 0.000000 15.998459 6.998454 0.000000 15.998459 7.998455 0.000000 15.998459 9.000000 0.000000 15.998453 10.000001 0.000000 15.998453 11.001545 0.000000 15.998458 12.001546 0.000000 15.998458 13.001546 0.000000 15.998458 14.001546 0.000000 15.998457 15.001546 0.000000 15.998457 16.001547 0.000000 15.998457 17.001547 0.000000 15.997685 18.001547 0.000000 15.998451 19.002321 0.000000 16.998458 -0.002321 0.000000 16.998458 0.998453 0.000000 16.998458 1.998453 0.000000 16.998458 2.998453 0.000000 16.998459 3.998454 0.000000 16.998460 4.998454 0.000000 16.998460 5.998454 0.000000 16.998459 6.998454 0.000000 16.998459 7.998455
[...]
      <PointData Vectors="vector">
        <DataArray type="Float32" Name="Velocity" NumberOfComponents="3" format="ascii">
-0.015000 -0.009000 0.000000 -0.015000 -0.006000 0.000000 -0.015000 -0.006000 0.000000 -0.015000 -0.006000 0.000000 -0.021000 -0.006000 0.000000 -0.021000 -0.006000 0.000000 -0.021000 -0.006000 0.000000 -0.021000 -0.006000 0.000000 -0.015000 -0.006000 0.000000 -0.021000 0.000000 0.000000 -0.015000 0.000000 0.000000 -0.015000 0.006000 0.000000 -0.015000 0.006000 0.000000 -0.015000 0.006000 0.000000 -0.015000 0.006000 0.000000 -0.015000 0.006000 0.000000 -0.015000 0.006000 0.000000 -0.015000 0.006000 0.000000 -0.015000 0.006000 0.000000 -0.015000 0.009000 0.000000 -0.006000 -0.009000 0.000000 -0.006000 -0.006000 0.000000 -0.018000 -0.006000 0.000000 -0.018000 -0.006000 0.000000 -0.018000 -0.006000 0.000000 -0.018000 -0.006000 0.000000 -0.018000 -0.006000 0.000000 -0.018000 -0.006000 0.000000 -0.018000 -0.006000 0.000000 -0.012000 0.000000 0.000000 -0.018000 0.000000 0.000000 -0.018000 0.006000 0.000000 -0.006000 0.006000 0.000000 -0.006000 0.006000 0.000000 -0.006000 0.006000 0.000000 -0.006000 0.006000 0.000000 -0.006000 0.006000 0.000000 -0.006000 0.006000 0.000000 -0.018000 0.006000 0.000000 -0.018000 0.009000 0.000000 -0.006000 -0.009000 0.000000 -0.006000 -0.006000 0.000000 -0.006000 -0.006000 0.000000 -0.018000 -0.006000 0.000000 -0.012000 -0.006000 0.000000 -0.012000 -0.006000 0.000000 -0.012000 -0.006000 0.000000 -0.018000 -0.006000 0.000000 -0.018000 -0.006000 0.000000 -0.012000 0.000000 0.000000 -0.018000 0.000000 0.000000 -0.018000 0.006000 0.000000 -0.006000 0.006000 0.000000 -0.006000 0.006000 0.000000 -0.006000 0.006000 0.000000 -0.006000 0.006000 0.000000 -0.006000 0.006000 0.000000 -0.006000 0.006000 0.000000 -0.018000 0.006000 0.000000 -0.018000 0.009000 0.000000 -0.006000 -0.009000 0.000000 -0.006000 -0.006000 0.000000 -0.006000 -0.006000 0.000000 -0.018000 -0.006000 0.000000 -0.018000 -0.006000 0.000000 -0.012000 -0.006000 0.000000 -0.012000 -0.006000 0.000000 -0.012000 -0.006007 0.000000 -0.018000 -0.006000 0.000000 -0.012000 -0.000000 0.000000 -0.018000 -0.000000 0.000000 -0.018000 0.006000 0.000000 -0.006000 0.006000 0.000000 -0.006000 0.006000 0.000000 -0.006000 0.006000 0.000000 -0.006000 0.006000 0.000000 -0.006000 0.006000 0.000000 -0.006000 0.006000 0.000000 -0.018000 0.006000 0.000000 -0.018000 0.009000 0.000000 -0.006000 -0.009000 0.000000 -0.006000 -0.012000 0.000000 -0.005998 -0.011979 0.000000 -0.018001 -0.011929 0.000000 -0.017988 -0.011972 0.000000 -0.012013 0.000000 0.000000 -0.012007 0.000001 0.000000 -0.011993 0.000027 0.000000 -0.018000 0.000000 0.000000 -0.018000 0.000010 0.000000 -0.018000 0.000034 0.000000 -0.018000 0.000041 0.000000 -0.006000 0.006000 0.000000 -0.006000 0.006000 0.000000 -0.006000 0.006000 0.000000 -0.006000 0.006000 0.000000 -0.006000 0.006000 0.000000 -0.005998 0.006000 0.000000 -0.018002 0.012000 0.000000 -0.018000 0.009000 0.000000 -0.006000 -0.033000 0.000000 -0.006000 -0.030000 0.000000 -0.006000 -0.018020 0.000000 -0.006000 -0.006071 0.000000 -0.012000 -0.012035 0.000000 -0.012001 -0.012001 0.000000 -0.012000 -0.012001 0.000000 -0.012000 -0.012055 0.000000 -0.018000 -0.012044 0.000000 -0.018000 -0.006031 0.000000 -0.018000 -0.000078 0.000000 -0.018000 -0.000092 0.000000 -0.006000 0.006000 0.000000 -0.006000 0.006000 0.000000 -0.006000 0.006000 0.000000 -0.006000 0.006000 0.000000 -0.006000 0.006000 0.000000 -0.006000 0.006000 0.000000 -0.018000 0.006000 0.000000 -0.018000 0.009000 0.000000 -0.006000 -0.015000 0.000000 -0.006000 -0.012000 0.000000 -0.006000 -0.011981 0.000000 -0.006000 -0.011929 0.000000 -0.011988 -0.005958 0.000000 -0.012012 0.000000 0.000000 -0.012000 0.000001 0.000000 -0.005999 -0.005949 0.000000 -0.012001 0.000091 0.000000 -0.017999 0.000021 0.000000 -0.018001 0.006043 0.000000 -0.018001 0.000051 0.000000 -0.005999 0.006000 0.000000 -0.006000 0.006000 0.000000 -0.006000 0.006000 0.000000 -0.006000 0.006000 0.000000 -0.006000 0.006000 0.000000 -0.005998 0.006000 0.000000 -0.018002 0.012000 0.000000 -0.012000 0.009000 0.000000 -0.006000 -0.009000 0.000000 -0.006000 -0.012000 0.000000 -0.006000 -0.011999 0.000000 -0.006000 -0.006000 0.000000 -0.006000 -0.006000 0.000000 -0.018000 -0.006000 0.000000 -0.018000 -0.006000 0.000000 -0.006000 -0.000017 0.000000 -0.012000 -0.000048 0.000000 -0.006000 -0.000000 0.000000 -0.012000 -0.000000 0.000000 -0.012000 0.006000 0.000000 -0.006000 0.006000 0.000000 -0.006000 0.006000 0.000000 -0.006000 0.006000 0.000000 -0.006000 0.006000 0.000000 -0.006000 0.006000 0.000000 -0.006000 0.006000 0.000000 -0.018000 0.006000 0.000000 -0.012000 0.009000 0.000000 -0.006000 -0.009000 0.000000 -0.006000 -0.006000 0.000000 -0.006000 -0.006000 0.000000 -0.006000 -0.006000 0.000000 -0.006000 -0.006000 0.000000 -0.006000 -0.006000 0.000000 -0.006000 -0.006000 0.000000 -0.006000 -0.006000 0.000000 -0.012000 -0.006000 0.000000 -0.006000 0.000000 0.000000 -0.012000 0.000000 0.000000 -0.012000 0.006000 0.000000 -0.006000 0.006000 0.000000 -0.006000 0.006000 0.000000 -0.006000 0.006000 0.000000 -0.006000 0.006000 0.000000 -0.006000 0.006000 0.000000 -0.006000 0.006000 0.000000 -0.018000 0.006000 0.000000 -0.012000 0.009000 0.000000 -0.006000 -0.009000 0.000000 -0.006000 -0.006000 0.000000 -0.006000 -0.006000 0.000000 -0.006000 -0.006000 0.000000 -0.006000 -0.006000 0.000000 -0.006000 -0.006000 0.000000 -0.006000 -0.006000 0.000000 -0.006000 -0.006000 0.000000 -0.012000 -0.006000 0.000000 -0.006000 0.000000 0.000000 -0.012000 0.000000 0.000000 -0.012000 0.006000 0.000000 -0.006000 0.006000 0.000000 -0.006000 0.006000 0.000000 -0.006000 0.006000 0.000000 -0.006000 0.006000 0.000000 -0.006000 0.006000 0.000000 -0.006000 0.006000 0.000000 -0.018000 0.006000 0.000000 -0.012000 0.009000 0.000000 -0.006000 -0.009000 0.000000 -0.006000 -0.006000 0.000000 -0.006000 -0.006000 0.000000 -0.006000 -0.006000 0.000000 -0.006000 -0.006000 0.000000 -0.006000 -0.006000 0.000000 -0.006000 -0.006000 0.000000 -0.006000 -0.006000 0.000000 -0.006000 -0.006000 0.000000 -0.006000 -0.000000 0.000000 -0.012000 0.000000 0.000000 -0.012000 0.006000 0.000000 -0.006000 0.006000 0.000000 -0.006000 0.006000 0.000000 -0.006000 0.006000 0.000000 -0.006000 0.006000 0.000000 -0.006000 0.006000 0.000000 -0.006000 0.006000 0.000000 -0.012000 0.006000 0.000000 -0.012000 0.009000 0.000000 -0.006000 -0.009000 0.000000 -0.006000 -0.006000 0.000000 -0.006000 -0.006000 0.000000 -0.006000 -0.006000 0.000000 -0.006000 -0.006000 0.000000 -0.006000 -0.006000 0.000000 -0.006000 -0.006000 0.000000 -0.006000 -0.006000 0.000000 -0.006000 -0.006000 0.000000 -0.006000 0.000000 0.000000 -0.012000 0.000000 0.000000 -0.012000 0.006000 0.000000 -0.006000 0.006000 0.000000 -0.006000 0.006000 0.000000 -0.006000 0.006000 0.000000 -0.006000 0.006000 0.000000 -0.006000 0.006000 0.000000 -0.006000 0.006000 0.000000 -0.012000 0.006000 0.000000 -0.012000 0.009000 0.000000 -0.006000 -0.009000 0.000000 -0.006000 -0.006000 0.000000 -0.006000 -0.006000 0.000000 -0.006000 -0.006000 0.000000 -0.006000 -0.006000 0.000000 -0.006000 -0.006000 0.000000 -0.006000 -0.006000 0.000000 -0.006000 -0.006000 0.000000 -0.006000 -0.006000 0.000000 -0.006000 0.000000 0.000000 -0.012000 0.000000 0.000000 -0.012000 0.006000 0.000000 -0.006000 0.006000 0.000000 -0.006000 0.006000 0.000000 -0.006000 0.006000 0.000000 -0.006000 0.006000 0.000000 -0.006000 0.006000 0.000000 -0.006000 0.006000 0.000000 -0.012000 0.006000 0.000000 -0.012000 0.009000 0.000000 -0.006000 -0.009000 0.000000 -0.006000 -0.006000 0.000000 -0.006000 -0.006000 0.000000 -0.006000 -0.006000 0.000000 -0.006000 -0.006000 0.000000 -0.006000 -0.006000 0.000000 -0.006000 -0.006000 0.000000 -0.006000 -0.006000 0.000000 -0.006000 -0.006000 0.000000 -0.006000 0.000000 0.000000 -0.006000 0.000000 0.000000 -0.006000 0.006000 0.000000 -0.006000 0.006000 0.000000 -0.006000 0.006000 0.000000 -0.006000 0.006000 0.000000 -0.006000 0.006000 0.000000 -0.006000 0.006000 0.000000 -0.006000 0.006000 0.000000 -0.012000 0.006000 0.000000 -0.012000 0.009000 0.000000 -0.006000 -0.009000 0.000000 -0.006000 -0.006000 0.000000 -0.006000 -0.006000 0.000000 -0.006000 -0.006000 0.000000 -0.006000 -0.006000 0.000000 -0.006000 -0.006000 0.000000 -0.006000 -0.006000 0.000000 -0.006000 -0.006000 0.000000 -0.006000 -0.006000 0.000000 -0.006000 0.000000 0.000000 -0.006000 0.000000 0.000000 -0.006000 0.006000 0.000000 -0.006000 0.006000 0.000000 -0.006000 0.006000 0.000000 -0.006000 0.006000 0.000000 -0.006000 0.006000 0.000000 -0.006000 0.006000 0.000000 -0.006000 0.006000 0.000000 -0.012000 0.006000 0.000000 -0.006000 0.009000 0.000000 -0.006000 -0.009000 0.000000 -0.006000 -0.006000 0.000000 -0.006000 -0.006000 0.000000 -0.006000 -0.006000 0.000000 -0.006000 -0.006000 0.000000 -0.006000 -0.006000 0.000000 -0.006000 -0.006000 0.000000 -0.006000 -0.006000 0.000000 -0.006000 -0.006000 0.000000 -0.006000 0.000000 0.000000 -0.006000 0.000000 0.000000 -0.006000 0.006000 0.000000 -0.006000 0.006000 0.000000 -0.006000 0.006000 0.000000 -0.006000 0.006000 0.000000 -0.006000 0.006000 0.000000 -0.006000 0.006000 0.000000 -0.006000 0.006000 0.000000 -0.012000 0.006000 0.000000 -0.006000 0.009000 0.000000 -0.006000 -0.009000 0.000000 -0.006000 -0.006000 0.000000 -0.006000 -0.006000 0.000000 -0.006000 -0.006000 0.000000 -0.006000 -0.006000 0.000000 -0.006000 -0.006000 0.000000 -0.006000 -0.006000 0.000000 -0.006000 -0.006000 0.000000 -0.006000 -0.006000 0.000000 -0.006000 0.000000 0.000000 -0.006000 0.000000 0.000000 -0.006000 0.006000 0.000000 -0.006000 0.006000 0.000000 -0.006000 0.006000 0.000000 -0.006000 0.006000 0.000000 -0.006000 0.006000 0.000000 -0.006000 0.006000 0.000000 -0.006000 0.006000 0.000000 -0.012000 0.006000 0.000000 -0.006000 0.009000 0.000000 -0.006000 -0.009000 0.000000 -0.006000 -0.006000 0.000000 -0.006000 -0.006000 0.000000 -0.006000 -0.006000 0.000000 -0.006000 -0.006000 0.000000 -0.006000 -0.006000 0.000000 -0.006000 -0.006000 0.000000 -0.006000 -0.006000 0.000000 -0.006000 -0.006000 0.000000 -0.006000 0.000000 0.000000 -0.006000 0.000000 0.000000 -0.006000 0.006000 0.000000 -0.006000 0.006000 0.000000 -0.006000 0.006000 0.000000 -0.006000 0.006000 0.000000 -0.006000 0.006000 0.000000 -0.006000 0.006000 0.000000 -0.006000 0.006000 0.000000 -0.012000 0.006000 0.000000 -0.006000 0.009000 0.000000 -0.006000 -0.009000 0.000000 -0.006000 -0.006000 0.000000 -0.006000 -0.006000 0.000000 -0.006000 -0.006000 0.000000 -0.006000 -0.006000 0.000000 -0.006000 -0.006000 0.000000 -0.006000 -0.006000 0.000000 -0.006000 -0.006000 0.000000 -0.006000 -0.006000 0.000000 -0.006000 0.000000 0.000000 -0.006000 0.000000 0.000000 -0.006000 0.006000 0.000000 -0.006000 0.006000 0.000000 -0.006000 0.006000 0.000000 -0.006000 0.006000 0.000000 -0.006000 0.006000 0.000000 -0.006000 0.006000 0.000000 -0.006000 0.006000 0.000000 -0.006000 0.006000 0.000000 -0.006000 0.009000 0.000000 -0.006000 -0.009000 0.000000 -0.006000 -0.006000 0.000000 -0.006000 -0.006000 0.000000 -0.006000 -0.006000 0.000000 -0.006000 -0.006000 0.000000 -0.006000 -0.006000 0.000000 -0.006000 -0.006000 0.000000 -0.006000 -0.006000 0.000000 -0.006000 -0.006000 0.000000 -0.006000 0.000000 0.000000 -0.006000 0.000000 0.000000 -0.006000 0.006000 0.000000 -0.006000 0.006000 0.000000 -0.006000 0.006000 0.000000 -0.006000 0.006000 0.000000 -0.006000 0.006000 0.000000 -0.006000 0.006000 0.000000 -0.006000 0.006000 0.000000 -0.006000 0.006000 0.000000 -0.006000 0.009000 0.000000 -0.006000 -0.009000 0.000000 -0.006000 -0.006000 0.000000 -0.006000 -0.006000 0.000000 -0.006000 -0.006000 0.000000 -0.006000 -0.006000 0.000000 -0.006000 -0.006000 0.000000 -0.006000 -0.006000 0.000000 -0.006000 -0.006000 0.000000 -0.006000 -0.006000 0.000000 -0.006000 0.000000 0.000000 -0.006000 0.000000 0.000000 -0.006000 0.006000 0.000000 -0.006000 0.006000 0.000000 -0.006000 0.006000 0.000000 -0.006000 0.006000 0.000000 -0.006000 0.006000 0.000000 -0.006000 0.006000 0.000000 -0.006000 0.006000 0.000000 -0.006000 0.006000 0.000000 -0.006000 0.009000 0.000000 -0.006000 -0.009000 0.000000 -0.006000 -0.006000 0.000000 -0.006000 -0.006000 0.000000 -0.006000 -0.006000 0.000000 -0.006000 -0.006000 0.000000 -0.006000 -0.006000 0.000000 -0.006000 -0.006000 0.000000 -0.006000 -0.006000 0.000000 -0.006000 -0.006000 0.000000 -0.006000 0.000000 0.000000 -0.006000 0.000000 0.000000 -0.006000 0.006000 0.000000 -0.006000 0.006000 0.000000 -0.006000 0.006000 0.000000 -0.006000 0.006000 0.000000 -0.006000 0.006000 0.000000 -0.006000 0.006000 0.000000 -0.006000 0.006000 0.000000 -0.006000 0.006000 0.000000 -0.006000 0.009000 0.000000 -0.006000 -0.009000 0.000000 -0.006000 -0.006000 0.000000 -0.006000 -0.006000 0.000000 -0.006000 -0.006000 0.000000 -0.006000 -0.006000 0.000000 -0.006000 -0.006000 0.000000 -0.006000 -0.006000 0.000000 -0.006000 -0.006000 0.000000 -0.006000 -0.006000 0.000000 -0.006000 0.000000 0.000000 -0.006000 0.000000 0.000000 -0.006000 0.006000 0.000000 -0.006000 0.006000 0.000000 -0.006000 0.006000 0.000000 -0.006000 0.006000 0.000000 -0.006000 0.006000 0.000000 -0.006000 0.006000 0.000000 -0.006000 0.006000 0.000000 0.000000 0.006000 0.000000 -0.006000 0.009000 0.000000 -0.006000 -0.009000 0.000000 -0.006000 -0.006000 0.000000 -0.006000 -0.006000 0.000000 -0.006000 -0.006000 0.000000 -0.006000 -0.006000 0.000000 -0.006000 -0.006000 0.000000 -0.006000 -0.006000 0.000000 -0.006000 -0.006000 0.000000 -0.006000 -0.006000 0.000000 -0.006000 0.000000 0.000000 -0.006000 0.000000 0.000000 -0.006000 0.006000 0.000000 -0.006000 0.006000 0.000000 -0.006000 0.006000 0.000000 -0.006000 0.006000 0.000000 -0.006000 0.006000 0.000000 -0.006000 0.006000 0.000000 -0.006000 0.006000 0.000000 0.000000 0.006000 0.000000 -0.006000 0.009000 0.000000 -0.006000 -0.009000 0.000000 -0.006000 -0.006000 0.000000 -0.006000 -0.006000 0.000000 -0.006000 -0.006000 0.000000 -0.006000 -0.006000 0.000000 -0.006000 -0.006000 0.000000 -0.006000 -0.006000 0.000000 -0.006000 -0.006000 0.000000 -0.006000 -0.006000 0.000000 -0.006000 0.000000 0.000000 -0.006000 0.000000 0.000000 -0.006000 0.006000 0.000000 -0.006000 0.006000 0.000000 -0.006000 0.006000 0.000000 -0.006000 0.006000 0.000000 -0.006000 0.006000 0.000000 -0.006000 0.006000 0.000000 -0.006000 0.006000 0.000000 -0.000000 0.006000 0.000000 -0.006000 0.009000 0.000000 -0.006000 -0.009000 0.000000 -0.006000 -0.006000 0.000000 -0.006000 -0.006000 0.000000 -0.006000 -0.006000 0.000000 -0.006000 -0.006000 0.000000 -0.006000 -0.006000 0.000000 -0.006000 -0.006000 0.000000 -0.006000 -0.006000 0.000000 -0.006000 -0.006000 0.000000 -0.006000 0.000000 0.000000 -0.006000 0.000000 0.000000 -0.006000 0.006000 0.000000 -0.006000 0.006000 0.000000 -0.006000 0.006000 0.000000 -0.006000 0.006000 0.000000 -0.006000 0.006000 0.000000 -0.006000 0.006000 0.000000 -0.006000 0.006000 0.000000 0.000000 0.006000 0.000000 -0.006000 0.009000 0.000000 -0.006000 -0.009000 0.000000 -0.006000 -0.006000 0.000000 -0.006000 -0.006000 0.000000 -0.006000 -0.006000 0.000000 -0.006000 -0.006000 0.000000 -0.006000 -0.006000 0.000000 -0.006000 -0.006000 0.000000 -0.006000 -0.006000 0.000000 -0.006000 -0.006000 0.000000 -0.006000 0.000000 0.000000 -0.006000 0.000000 0.000000 -0.000000 0.006000 0.000000 -0.006000 0.006000 0.000000 -0.006000 0.006000 0.000000 -0.006000 0.006000 0.000000 -0.006000 0.006000 0.000000 -0.006000 0.006000 0.000000 -0.006000 0.006000 0.000000 0.000000 0.006000 0.000000 0.000000 0.009000 0.000000 -0.006000 -0.009000 0.000000 -0.006000 -0.006000 0.000000 -0.006000 -0.006000 0.000000 -0.006000 -0.006000 0.000000 0.000000 -0.006000 0.000000 -0.006000 -0.006000 0.000000 -0.006000 -0.006000 0.000000 -0.006000 -0.006000 0.000000 -0.006000 -0.006000 0.000000 -0.006000 0.000000 0.000000 -0.000000 0.000000 0.000000 0.000000 0.006000 0.000000 -0.006000 0.006000 0.000000 -0.006000 0.006000 0.000000 -0.006000 0.006000 0.000000 -0.006000 0.006000 0.000000 -0.006000 0.006000 0.000000 -0.006000 0.006000 0.000000 0.006000 0.006000 0.000000 -0.000000 0.009000 0.000000 -0.006000 -0.009000 0.000000 -0.006000 -0.006000 0.000000 -0.006000 -0.006000 0.000000 -0.006000 -0.006000 0.000000 -0.000000 -0.006000 0.000000 -0.006000 -0.006000 0.000000 -0.006000 -0.006000 0.000000 -0.006000 -0.006000 0.000000 -0.006000 -0.006000 0.000000 -0.006000 -0.000000 0.000000 -0.000000 -0.000000 0.000000 -0.000000 0.006001 0.000000 -0.006000 0.006000 0.000000 -0.006000 0.006000 0.000000 -0.006000 0.006000 0.000000 -0.006000 0.006000 0.000000 -0.006000 0.006000 0.000000 -0.006000 0.006000 0.000000 0.006000 0.006000 0.000000 -0.000000 0.009000 0.000000 -0.006000 -0.009000 0.000000 -0.006000 -0.012000 0.000000 -0.006000 -0.011939 0.000000 -0.006000 -0.011969 0.000000 -0.000001 -0.005980 0.000000 0.000002 -0.005948 0.000000 -0.006001 0.000066 0.000000 -0.006001 0.000007 0.000000 0.000001 0.000022 0.000000 -0.000001 -0.005817 0.000000 0.000002 0.006117 0.000000 0.000002 0.000501 0.000000 -0.006000 0.006000 0.000000 -0.006000 0.006000 0.000000 -0.006000 0.006000 0.000000 -0.006000 0.006000 0.000000 -0.006000 0.006000 0.000000 -0.006002 0.006000 0.000000 0.012002 0.012295 0.000000 0.000000 0.009155 0.000000 -0.011891 -1.191014 0.000000 -0.011860 -1.194021 0.000000 -0.012863 -1.293081 0.000000 -0.011089 -1.326059 0.000000 -0.012868 -1.227043 0.000000 -0.011799 -1.275114 0.000000 -0.003472 -1.248122 0.000000 -0.019191 -1.188045 0.000000 -0.014349 -1.200831 0.000000 -0.017403 -1.241829 0.000000 0.003834 -1.200832 0.000000 -0.007819 -1.242210 0.000000 -0.024755 -9.550871 0.000000 -0.006281 -1.155832 0.000000 -0.009001 -9.385438 0.000000 -0.035197 -0.919600 0.000000 0.039671 -9.239537 0.000000 -0.091473 -0.727800 0.000000 -0.239780 -8.456189 0.000000 0.489597 0.192783 0.000000 -0.011896 -1.215023 0.000000 -0.011845 -1.314040 0.000000 -0.013349 -1.257014 0.000000 -0.004744 -1.218016 0.000000 -0.005922 -1.245045 0.000000 -0.002370 -1.206095 0.000000 -0.001611 -1.194098 0.000000 -0.011307 -1.257008 0.000000 -0.012577 -1.224800 0.000000 -0.013068 -1.211916 0.000000 0.008325 -1.338594 0.000000 -0.002278 -1.256409 0.000000 -0.024620 -9.679372 0.000000 -0.008302 -1.170517 0.000000 -0.018559 -9.657360 0.000000 -0.026793 -1.197039 0.000000 0.029524 -9.368650 0.000000 -0.071705 -0.729432 0.000000 -0.249178 -9.367370 0.000000 0.534037 -0.666125 0.000000 -0.011897 -1.263022 0.000000 -0.011983 -1.281022 0.000000 -0.013271 -1.185051 0.000000 0.001326 -1.185019 0.000000 -0.013006 -1.266036 0.000000 0.000461 -1.170030 0.000000 0.007980 -1.233073 0.000000 -0.009917 -1.302161 0.000000 0.004212 -1.263766 0.000000 -0.011858 -1.157402 0.000000 0.007349 -1.242494 0.000000 -0.002085 -1.292997 0.000000 -0.024112 -9.512388 0.000000 -0.009752 -1.392881 0.000000 -0.012253 -9.441009 0.000000 -0.017770 -1.221855 0.000000 0.025976 -9.347627 0.000000 -0.067833 -0.801619 0.000000 -0.243466 -9.335860 0.000000 0.517713 -0.789062 0.000000 -0.011906 -1.245009 0.000000 -0.012279 -1.311010 0.000000 -0.006868 -1.209023 0.000000 -0.004888 -1.128049 0.000000 0.002228 -1.275070 0.000000 -0.002200 -1.232976 0.000000 -0.000444 -1.251078 0.000000 -0.007684 -1.296128 0.000000 0.004269 -1.248711 0.000000 -0.006514 -1.235803 0.000000 0.006989 -1.176045 0.000000 0.012020 -1.284114 0.000000 -0.025909 -9.721542 0.000000 -0.009465 -1.106740 0.000000 0.004873 -9.665006 0.000000 -0.022097 -0.998766 0.000000 0.037268 -9.585210 0.000000 -0.061406 -0.836696 0.000000 -0.218120 -9.448272 0.000000 0.494427 -0.592048 0.000000 -0.005999 -1.161055 0.000000 -0.006294 -1.284002 0.000000 -0.000576 -1.206058 0.000000 -0.004940 -1.310987 0.000000 -0.010684 -1.281027 0.000000 -0.002033 -1.260128 0.000000 0.001314 -1.250989 0.000000 -0.002192 -1.179132 0.000000 0.004293 -1.209929 0.000000 -0.001513 -1.292442 0.000000 0.007532 -1.209879 0.000000 0.003458 -1.266353 0.000000 -0.014626 -9.660949 0.000000 -0.003770 -1.124752 0.000000 -0.003473 -9.644615 0.000000 -0.007695 -1.147326 0.000000 0.031007 -9.444939 0.000000 -0.049423 -0.819140 0.000000 -0.1