<VTKFile type="UnstructuredGrid" version="0.1" byte_order="LittleEndian">
  <UnstructuredGrid>
    <Piece NumberOfPoints="2000" NumberOfCells="0">
      <Points>
        <DataArray name="Position" type="Float32" NumberOfComponents="3" format="ascii">
-0.005934 -0.003563 0.000000 -0.005934 0.997625 0.000000 -0.005934 1.997625 0.000000 -0.005934 2.997625 0.000000 -0.008142 3.997626 0.000000 -0.008276 4.997626 0.000000 -0.008261 5.997626 0.000000 -0.008297 6.997626 0.000000 -0.005925 7.997627 0.000000 -0.008296 9.000000 0.000000 -0.005921 10.000001 0.000000 -0.005920 11.002373 0.000000 -0.005922 12.002374 0.000000 -0.005922 13.002374 0.000000 -0.005922 14.002374 0.000000 -0.005916 15.002374 0.000000 -0.005916 16.002375 0.000000 -0.015108 17.002375 0.000000 -0.005916 18.002375 0.000000 -0.032598 19.003563 0.000000 0.997622 -0.003563 0.000000 0.997622 0.997625 0.000000 0.994618 1.997625 0.000000 0.994354 2.997625 0.000000 0.994340 3.997626 0.000000 0.992918 4.997626 0.000000 0.992988 5.997626 0.000000 0.994336 6.997626 0.000000 0.994319 7.997627 0.000000 0.994587 9.000000 0.000000 0.994285 10.000001 0.000000 0.994541 11.002373 0.000000 0.996599 12.002374 0.000000 0.997616 13.002374 0.000000 0.997292 14.002374 0.000000 0.997613 15.002374 0.000000 0.997613 16.002375 0.000000 0.984990 17.002375 0.000000 0.994346 18.002375 0.000000 0.967461 19.003563 0.000000 1.997625 -0.003563 0.000000 1.997625 0.997625 0.000000 1.997621 1.997625 0.000000 1.994358 2.997625 0.000000 1.994375 3.997626 0.000000 1.994786 4.997626 0.000000 1.994643 5.997626 0.000000 1.994366 6.997626 0.000000 1.994320 7.997627 0.000000 1.994608 9.000000 0.000000 1.994310 10.000001 0.000000 1.994571 11.002373 0.000000 1.996621 12.002374 0.000000 1.997625 13.002374 0.000000 1.997316 14.002374 0.000000 1.997625 15.002374 0.000000 1.997625 16.002375 0.000000 1.985072 17.002375 0.000000 1.994356 18.002375 0.000000 1.967584 19.003563 0.000000 2.997625 -0.003563 0.000000 2.997625 0.996989 0.000000 2.997626 1.997440 0.000000 2.994362 2.997620 0.000000 2.994393 3.997623 0.000000 2.994797 4.997625 0.000000 2.995240 5.997627 0.000000 2.995255 6.997814 0.000000 2.994322 7.998266 0.000000 2.994812 9.000000 0.000000 2.994314 10.000001 0.000000 2.994593 11.002373 0.000000 2.996621 12.002374 0.000000 2.997625 13.002374 0.000000 2.997323 14.002374 0.000000 2.997625 15.002374 0.000000 2.997625 16.002375 0.000000 2.985105 17.002375 0.000000 2.994373 18.002375 0.000000 2.967615 19.003546 0.000000 3.997625 -0.004322 0.000000 3.997625 0.996163 0.000000 3.997626 1.996320 0.000000 3.994430 2.996405 0.000000 3.995171 3.996816 0.000000 3.995246 4.998862 0.000000 3.995256 5.998948 0.000000 3.995259 6.999097 0.000000 3.994322 7.999194 0.000000 3.995255 9.000004 0.000000 3.994333 10.000010 0.000000 3.994616 11.000906 0.000000 3.997111 12.002374 0.000000 3.997625 13.002374 0.000000 3.997340 14.002375 0.000000 3.997625 15.002375 0.000000 3.997625 16.002375 0.000000 3.985113 17.002376 0.000000 3.994380 18.003275 0.000000 3.967783 19.004177 0.000000 4.997626 -0.012968 0.000000 4.997626 0.990885 0.000000 4.997624 1.992861 0.000000 4.997363 2.994870 0.000000 4.996396 3.995232 0.000000 4.995258 4.995248 0.000000 4.995258 5.995258 0.000000 4.995260 6.995261 0.000000 4.994359 7.995985 0.000000 4.995257 8.997615 0.000000 4.994335 9.999234 0.000000 4.994616 10.999977 0.000000 4.997111 12.002374 0.000000 4.997626 13.002374 0.000000 4.997350 14.002374 0.000000 4.997626 15.002374 0.000000 4.997626 16.002375 0.000000 4.985261 17.002375 0.000000 4.994401 18.002375 0.000000 4.967873 19.003534 0.000000 5.997627 -0.005927 0.000000 5.997627 0.995290 0.000000 5.997627 1.996059 0.000000 5.997627 2.996403 0.000000 5.996555 3.997630 0.000000 5.995261 4.998446 0.000000 5.995289 5.998867 0.000000 5.996734 6.999201 0.000000 5.995970 7.999985 0.000000 5.995259 9.000008 0.000000 5.994350 10.000974 0.000000 5.994676 11.001579 0.000000 5.997119 12.002374 0.000000 5.997626 13.002374 0.000000 5.997351 14.002375 0.000000 5.997626 15.002375 0.000000 5.997626 16.002375 0.000000 5.985262 17.002376 0.000000 5.994402 18.003346 0.000000 5.967932 19.004018 0.000000 6.997627 -0.004372 0.000000 6.997627 0.996122 0.000000 6.997627 1.996841 0.000000 6.997627 2.996978 0.000000 6.997159 3.997529 0.000000 6.995715 4.997720 0.000000 6.995298 5.998275 0.000000 6.997616 6.999123 0.000000 6.995976 7.999210 0.000000 6.997616 8.999999 0.000000 6.995954 10.000001 0.000000 6.996081 11.002373 0.000000 6.997129 12.002374 0.000000 6.997626 13.002374 0.000000 6.997354 14.002374 0.000000 6.997626 15.002374 0.000000 6.997626 16.002375 0.000000 6.985272 17.002375 0.000000 6.994402 18.002375 0.000000 6.967917 19.003554 0.000000 7.997627 -0.003563 0.000000 7.997627 0.997322 0.000000 7.997627 1.997624 0.000000 7.997627 2.997625 0.000000 7.997629 3.997625 0.000000 7.997616 4.997625 0.000000 7.997132 5.997626 0.000000 7.997621 6.997628 0.000000 7.995979 7.997929 0.000000 7.997622 8.999999 0.000000 7.995962 10.000001 0.000000 7.996092 11.002373 0.000000 7.997614 12.002374 0.000000 7.997626 13.002374 0.000000 7.997363 14.002374 0.000000 7.997626 15.002374 0.000000 7.997626 16.002375 0.000000 7.985322 17.002375 0.000000 7.994406 18.002375 0.000000 7.968074 19.003563 0.000000 8.997627 -0.003563 0.000000 8.997627 0.997625 0.000000 8.997627 1.997625 0.000000 8.997627 2.997625 0.000000 8.997629 3.997626 0.000000 8.997623 4.997626 0.000000 8.997615 5.997626 0.000000 8.997622 6.997626 0.000000 8.995983 7.997627 0.000000 8.997623 9.000000 0.000000 8.995967 10.000001 0.000000 8.996096 11.002373 0.000000 8.997625 12.002374 0.000000 8.997627 13.002374 0.000000 8.997363 14.002374 0.000000 8.997627 15.002374 0.000000 8.997627 16.002375 0.000000 8.985338 17.002375 0.000000 8.994436 18.002375 0.000000 8.968044 19.003563 0.000000 9.997628 -0.003563 0.000000 9.997628 0.997625 0.000000 9.997628 1.997625 0.000000 9.997628 2.997625 0.000000 9.997629 3.997626 0.000000 9.997624 4.997626 0.000000 9.997623 5.997626 0.000000 9.997623 6.997626 0.000000 9.997614 7.997627 0.000000 9.997623 9.000000 0.000000 9.995969 10.000001 0.000000 9.996098 11.002373 0.000000 9.997625 12.002374 0.000000 9.997627 13.002374 0.000000 9.997366 14.002374 0.000000 9.997627 15.002374 0.000000 9.997627 16.002375 0.000000 9.985348 17.002375 0.000000 9.995990 18.002375 0.000000 9.968073 19.003563 0.000000 10.997628 -0.003563 0.000000 10.997628 0.997625 0.000000 10.997628 1.997625 0.000000 10.997628 2.997625 0.000000 10.997630 3.997626 0.000000 10.997631 4.997626 0.000000 10.997631 5.997626 0.000000 10.997629 6.997626 0.000000 10.997629 7.997627 0.000000 10.997629 9.000000 0.000000 10.995969 10.000001 0.000000 10.996107 11.002373 0.000000 10.997626 12.002374 0.000000 10.997627 13.002374 0.000000 10.997364 14.002374 0.000000 10.997627 15.002374 0.000000 10.997627 16.002375 0.000000 10.985409 17.002375 0.000000 10.995991 18.002375 0.000000 10.968190 19.003563 0.000000 11.997628 -0.003563 0.000000 11.997628 0.997625 0.000000 11.997628 1.997625 0.000000 11.997628 2.997625 0.000000 11.997630 3.997626 0.000000 11.997631 4.997626 0.000000 11.997631 5.997626 0.000000 11.997629 6.997626 0.000000 11.997629 7.997627 0.000000 11.997629 9.000000 0.000000 11.995971 10.000001 0.000000 11.996109 11.002373 0.000000 11.997626 12.002374 0.000000 11.997628 13.002374 0.000000 11.997364 14.002374 0.000000 11.997628 15.002374 0.000000 11.997628 16.002375 0.000000 11.985393 17.002375 0.000000 11.995998 18.002375 0.000000 11.968186 19.003563 0.000000 12.997629 -0.003563 0.000000 12.997629 0.997625 0.000000 12.997629 1.997625 0.000000 12.997629 2.997625 0.000000 12.997630 3.997626 0.000000 12.997631 4.997626 0.000000 12.997631 5.997626 0.000000 12.997630 6.997626 0.000000 12.997630 7.997627 0.000000 12.997630 9.000000 0.000000 12.997612 10.000001 0.000000 12.997493 11.002373 0.000000 12.997626 12.002374 0.000000 12.997628 13.002374 0.000000 12.997363 14.002374 0.000000 12.997628 15.002374 0.000000 12.997628 16.002375 0.000000 12.985407 17.002375 0.000000 12.996000 18.002375 0.000000 12.968232 19.003563 0.000000 13.997629 -0.003563 0.000000 13.997629 0.997625 0.000000 13.997629 1.997625 0.000000 13.997629 2.997625 0.000000 13.997631 3.997626 0.000000 13.997631 4.997626 0.000000 13.997631 5.997626 0.000000 13.997630 6.997626 0.000000 13.997630 7.997627 0.000000 13.997630 9.000000 0.000000 13.997622 10.000001 0.000000 13.997525 11.002373 0.000000 13.997626 12.002374 0.000000 13.997628 13.002374 0.000000 13.997368 14.002374 0.000000 13.997628 15.002374 0.000000 13.997628 16.002375 0.000000 13.985338 17.002375 0.000000 13.996002 18.002375 0.000000 13.968400 19.003563 0.000000 14.997629 -0.003563 0.000000 14.997629 0.997625 0.000000 14.997629 1.997625 0.000000 14.997629 2.997625 0.000000 14.997631 3.997626 0.000000 14.997632 4.997626 0.000000 14.997632 5.997626 0.000000 14.997630 6.997626 0.000000 14.997630 7.997627 0.000000 14.997630 9.000000 0.000000 14.997622 10.000001 0.000000 14.997525 11.002373 0.000000 14.997630 12.002374 0.000000 14.997629 13.002374 0.000000 14.997365 14.002374 0.000000 14.997629 15.002374 0.000000 14.997629 16.002375 0.000000 14.985354 17.002375 0.000000 14.996004 18.002375 0.000000 14.968465 19.003563 0.000000 15.997629 -0.003563 0.000000 15.997629 0.997625 0.000000 15.997629 1.997625 0.000000 15.997629 2.997625 0.000000 15.997631 3.997626 0.000000 15.997632 4.997626 0.000000 15.997632 5.997626 0.000000 15.997631 6.997626 0.000000 15.997631 7.997627 0.000000 15.997631 9.000000 0.000000 15.997625 10.000001 0.000000 15.997528 11.002373 0.000000 15.997632 12.002374 0.000000 15.997630 13.002374 0.000000 15.997368 14.002374 0.000000 15.997629 15.002374 0.000000 15.997629 16.002375 0.000000 15.985336 17.002375 0.000000 15.996029 18.002375 0.000000 15.968460 19.003563 0.000000 16.997630 -0.003563 0.000000 16.997630 0.997625 0.000000 16.997630 1.997625 0.000000 16.997630 2.997625 0.000000 16.997632 3.997626 0.000000 16.997632 4.997626 0.000000 16.997632 5.997626 0.000000 16.997631 6.997626 0.000000 16.997631 7.997627
[...]
      <PointData Vectors="vector">
        <DataArray type="Float32" Name="Velocity" NumberOfComponents="3" format="ascii">
-0.015000 -0.009000 0.000000 -0.015000 -0.006000 0.000000 -0.015000 -0.006000 0.000000 -0.015000 -0.006000 0.000000 -0.021000 -0.006000 0.000000 -0.021000 -0.006000 0.000000 -0.021000 -0.006000 0.000000 -0.021000 -0.006000 0.000000 -0.015000 -0.006000 0.000000 -0.021000 0.000000 0.000000 -0.015000 0.000000 0.000000 -0.015000 0.006000 0.000000 -0.015000 0.006000 0.000000 -0.015000 0.006000 0.000000 -0.015000 0.006000 0.000000 -0.015000 0.006000 0.000000 -0.015000 0.006000 0.000000 -0.297009 0.006000 0.000000 -0.015000 0.006000 0.000000 -0.579007 0.009000 0.000000 -0.006000 -0.009000 0.000000 -0.006000 -0.006000 0.000000 -0.018000 -0.006000 0.000000 -0.018000 -0.006000 0.000000 -0.018000 -0.006000 0.000000 -0.018000 -0.006000 0.000000 -0.018000 -0.006000 0.000000 -0.018000 -0.006000 0.000000 -0.018000 -0.006000 0.000000 -0.018000 0.000000 0.000000 -0.018000 0.000000 0.000000 -0.018000 0.006000 0.000000 -0.018000 0.006000 0.000000 -0.006000 0.006000 0.000000 -0.066000 0.006000 0.000000 -0.006000 0.006000 0.000000 -0.006000 0.006000 0.000000 -0.293996 0.006000 0.000000 -0.018000 0.006000 0.000000 -0.510022 0.009000 0.000000 -0.006000 -0.009000 0.000000 -0.006000 -0.006000 0.000000 -0.006000 -0.006000 0.000000 -0.018000 -0.006000 0.000000 -0.018000 -0.006000 0.000000 -0.018000 -0.006000 0.000000 -0.018000 -0.006000 0.000000 -0.018000 -0.006000 0.000000 -0.018000 -0.006000 0.000000 -0.018000 0.000000 0.000000 -0.018000 0.000000 0.000000 -0.018000 0.006000 0.000000 -0.018000 0.006000 0.000000 -0.006000 0.006000 0.000000 -0.054000 0.006000 0.000000 -0.006000 0.006000 0.000000 -0.006000 0.006000 0.000000 -0.300007 0.006000 0.000000 -0.018000 0.006000 0.000000 -0.570006 0.009009 0.000000 -0.006000 -0.009000 0.000000 -0.006000 -0.012000 0.000000 -0.005971 -0.012000 0.000000 -0.018030 -0.006000 0.000000 -0.018003 -0.005997 0.000000 -0.017998 -0.006009 0.000000 -0.011999 -0.006004 0.000000 -0.011998 -0.000007 0.000000 -0.018002 0.000000 0.000000 -0.018000 -0.000000 0.000000 -0.018000 -0.000000 0.000000 -0.018000 0.006000 0.000000 -0.018000 0.006000 0.000000 -0.006000 0.006000 0.000000 -0.054000 0.006000 0.000000 -0.006000 0.006000 0.000000 -0.006000 0.006000 0.000000 -0.312000 0.005999 0.000000 -0.018000 0.006000 0.000000 -0.390001 0.008462 0.000000 -0.006000 -0.015000 0.000000 -0.006000 -0.012000 0.000000 -0.005985 -0.011979 0.000000 -0.018016 -0.011929 0.000000 -0.011986 -0.005975 0.000000 -0.012013 0.000042 0.000000 -0.012007 0.000020 0.000000 -0.011993 0.000027 0.000000 -0.018000 0.000000 0.000000 -0.012000 0.000032 0.000000 -0.018000 0.000034 0.000000 -0.018000 0.000041 0.000000 -0.012000 0.006000 0.000000 -0.006000 0.006000 0.000000 -0.054000 0.006000 0.000000 -0.006000 0.006000 0.000000 -0.006000 0.006000 0.000000 -0.300002 0.006002 0.000000 -0.018001 0.006000 0.000000 -0.522059 0.016205 0.000000 -0.006000 -0.033000 0.000000 -0.006000 -0.030000 0.000000 -0.006000 -0.018020 0.000000 -0.012000 -0.006082 0.000000 -0.012000 -0.012035 0.000000 -0.012001 -0.012065 0.000000 -0.012000 -0.012031 0.000000 -0.012000 -0.012055 0.000000 -0.018000 -0.012044 0.000000 -0.012000 -0.006065 0.000000 -0.018000 -0.000078 0.000000 -0.018000 -0.000092 0.000000 -0.012000 0.006000 0.000000 -0.006000 0.006000 0.000000 -0.036000 0.006000 0.000000 -0.006000 0.006000 0.000000 -0.006000 0.006000 0.000000 -0.353999 0.005998 0.000000 -0.018000 0.006000 0.000000 -0.510098 0.007895 0.000000 -0.006000 -0.015000 0.000000 -0.006000 -0.012000 0.000000 -0.006000 -0.011981 0.000000 -0.006000 -0.011914 0.000000 -0.011988 -0.005958 0.000000 -0.012012 -0.005958 0.000000 -0.012009 0.000021 0.000000 -0.017990 0.000051 0.000000 -0.012001 0.000091 0.000000 -0.011999 0.000033 0.000000 -0.018003 0.000043 0.000000 -0.017999 0.006051 0.000000 -0.011999 0.006000 0.000000 -0.006000 0.006000 0.000000 -0.060000 0.006000 0.000000 -0.006000 0.006000 0.000000 -0.006000 0.006000 0.000000 -0.353998 0.006003 0.000000 -0.017992 0.006000 0.000000 -0.410978 0.015868 0.000000 -0.006000 -0.015000 0.000000 -0.006000 -0.012000 0.000000 -0.006000 -0.005999 0.000000 -0.006000 -0.011998 0.000000 -0.011981 -0.012000 0.000000 -0.006018 -0.000009 0.000000 -0.012001 -0.000005 0.000000 -0.006000 -0.000005 0.000000 -0.012000 -0.000048 0.000000 -0.006000 -0.000000 0.000000 -0.012000 -0.000000 0.000000 -0.012000 0.006000 0.000000 -0.012000 0.006000 0.000000 -0.006000 0.006000 0.000000 -0.054000 0.006000 0.000000 -0.006000 0.006000 0.000000 -0.006000 0.006000 0.000000 -0.306005 0.005999 0.000000 -0.018000 0.006000 0.000000 -0.428928 0.008558 0.000000 -0.006000 -0.009000 0.000000 -0.006000 -0.012000 0.000000 -0.006000 -0.006000 0.000000 -0.006000 -0.005995 0.000000 -0.006000 -0.006000 0.000000 -0.006000 -0.006000 0.000000 -0.018000 -0.006000 0.000000 -0.005992 -0.006013 0.000000 -0.012008 0.000000 0.000000 -0.006000 0.000000 0.000000 -0.012000 0.000000 0.000000 -0.012000 0.006000 0.000000 -0.006000 0.006000 0.000000 -0.006000 0.006000 0.000000 -0.045000 0.006000 0.000000 -0.006000 0.006000 0.000000 -0.006000 0.006000 0.000000 -0.312009 0.006000 0.000000 -0.018000 0.006000 0.000000 -0.537094 0.009004 0.000000 -0.006000 -0.009000 0.000000 -0.006000 -0.006000 0.000000 -0.006000 -0.006000 0.000000 -0.006000 -0.006000 0.000000 -0.006000 -0.006000 0.000000 -0.006000 -0.006000 0.000000 -0.006000 -0.006000 0.000000 -0.006000 -0.006000 0.000000 -0.012000 -0.006000 0.000000 -0.006000 0.000000 0.000000 -0.012000 0.000000 0.000000 -0.012000 0.006000 0.000000 -0.006000 0.006000 0.000000 -0.006000 0.006000 0.000000 -0.057000 0.006000 0.000000 -0.006000 0.006000 0.000000 -0.006000 0.006000 0.000000 -0.282001 0.006000 0.000000 -0.018000 0.006000 0.000000 -0.549071 0.009000 0.000000 -0.006000 -0.009000 0.000000 -0.006000 -0.006000 0.000000 -0.006000 -0.006000 0.000000 -0.006000 -0.006000 0.000000 -0.006000 -0.006000 0.000000 -0.006000 -0.006000 0.000000 -0.006000 -0.006000 0.000000 -0.006000 -0.006000 0.000000 -0.006000 -0.006000 0.000000 -0.006000 -0.000000 0.000000 -0.012000 0.000000 0.000000 -0.012000 0.006000 0.000000 -0.006000 0.006000 0.000000 -0.006000 0.006000 0.000000 -0.057000 0.006000 0.000000 -0.006000 0.006000 0.000000 -0.006000 0.006000 0.000000 -0.348025 0.006000 0.000000 -0.012000 0.006000 0.000000 -0.521856 0.009000 0.000000 -0.006000 -0.009000 0.000000 -0.006000 -0.006000 0.000000 -0.006000 -0.006000 0.000000 -0.006000 -0.006000 0.000000 -0.006000 -0.006000 0.000000 -0.006000 -0.006000 0.000000 -0.006000 -0.006000 0.000000 -0.006000 -0.006000 0.000000 -0.006000 -0.006000 0.000000 -0.006000 0.000000 0.000000 -0.012000 0.000000 0.000000 -0.012000 0.006000 0.000000 -0.006000 0.006000 0.000000 -0.006000 0.006000 0.000000 -0.051000 0.006000 0.000000 -0.006000 0.006000 0.000000 -0.006000 0.006000 0.000000 -0.333011 0.006000 0.000000 -0.012000 0.006000 0.000000 -0.447078 0.009000 0.000000 -0.006000 -0.009000 0.000000 -0.006000 -0.006000 0.000000 -0.006000 -0.006000 0.000000 -0.006000 -0.006000 0.000000 -0.006000 -0.006000 0.000000 -0.006000 -0.006000 0.000000 -0.006000 -0.006000 0.000000 -0.006000 -0.006000 0.000000 -0.006000 -0.006000 0.000000 -0.006000 0.000000 0.000000 -0.012000 0.000000 0.000000 -0.012000 0.006000 0.000000 -0.006000 0.006000 0.000000 -0.006000 0.006000 0.000000 -0.063000 0.006000 0.000000 -0.006000 0.006000 0.000000 -0.006000 0.006000 0.000000 -0.315009 0.006000 0.000000 -0.012000 0.006000 0.000000 -0.525027 0.009000 0.000000 -0.006000 -0.009000 0.000000 -0.006000 -0.006000 0.000000 -0.006000 -0.006000 0.000000 -0.006000 -0.006000 0.000000 -0.006000 -0.006000 0.000000 -0.006000 -0.006000 0.000000 -0.006000 -0.006000 0.000000 -0.006000 -0.006000 0.000000 -0.006000 -0.006000 0.000000 -0.006000 0.000000 0.000000 -0.006000 0.000000 0.000000 -0.066000 0.006000 0.000000 -0.006000 0.006000 0.000000 -0.006000 0.006000 0.000000 -0.045000 0.006000 0.000000 -0.006000 0.006000 0.000000 -0.006000 0.006000 0.000000 -0.368989 0.006000 0.000000 -0.012000 0.006000 0.000000 -0.486359 0.009000 0.000000 -0.006000 -0.009000 0.000000 -0.006000 -0.006000 0.000000 -0.006000 -0.006000 0.000000 -0.006000 -0.006000 0.000000 -0.006000 -0.006000 0.000000 -0.006000 -0.006000 0.000000 -0.006000 -0.006000 0.000000 -0.006000 -0.006000 0.000000 -0.006000 -0.006000 0.000000 -0.006000 0.000000 0.000000 -0.006000 0.000000 0.000000 -0.054000 0.006000 0.000000 -0.006000 0.006000 0.000000 -0.006000 0.006000 0.000000 -0.066000 0.006000 0.000000 -0.006000 0.006000 0.000000 -0.006000 0.006000 0.000000 -0.320982 0.006000 0.000000 -0.012000 0.006000 0.000000 -0.377876 0.009000 0.000000 -0.006000 -0.009000 0.000000 -0.006000 -0.006000 0.000000 -0.006000 -0.006000 0.000000 -0.006000 -0.006000 0.000000 -0.006000 -0.006000 0.000000 -0.006000 -0.006000 0.000000 -0.006000 -0.006000 0.000000 -0.006000 -0.006000 0.000000 -0.006000 -0.006000 0.000000 -0.006000 0.000000 0.000000 -0.006000 0.000000 0.000000 -0.048000 0.006000 0.000000 -0.006000 0.006000 0.000000 -0.006000 0.006000 0.000000 -0.051000 0.006000 0.000000 -0.006000 0.006000 0.000000 -0.006000 0.006000 0.000000 -0.339041 0.006000 0.000000 -0.012000 0.006000 0.000000 -0.441124 0.009000 0.000000 -0.006000 -0.009000 0.000000 -0.006000 -0.006000 0.000000 -0.006000 -0.006000 0.000000 -0.006000 -0.006000 0.000000 -0.006000 -0.006000 0.000000 -0.006000 -0.006000 0.000000 -0.006000 -0.006000 0.000000 -0.006000 -0.006000 0.000000 -0.006000 -0.006000 0.000000 -0.006000 0.000000 0.000000 -0.006000 0.000000 0.000000 -0.057001 0.006000 0.000000 -0.006000 0.006000 0.000000 -0.006000 0.006000 0.000000 -0.063001 0.006000 0.000000 -0.006000 0.006000 0.000000 -0.006000 0.006000 0.000000 -0.362985 0.006000 0.000000 -0.012000 0.006000 0.000000 -0.506831 0.009000 0.000000 -0.006000 -0.009000 0.000000 -0.006000 -0.006000 0.000000 -0.006000 -0.006000 0.000000 -0.006000 -0.006000 0.000000 -0.006000 -0.006000 0.000000 -0.006000 -0.006000 0.000000 -0.006000 -0.006000 0.000000 -0.006000 -0.006000 0.000000 -0.006000 -0.006000 0.000000 -0.006000 0.000000 0.000000 -0.006000 0.000000 0.000000 -0.068999 0.006000 0.000000 -0.006000 0.006000 0.000000 -0.006000 0.006000 0.000000 -0.047999 0.006000 0.000000 -0.006000 0.006000 0.000000 -0.006000 0.006000 0.000000 -0.279087 0.006000 0.000000 -0.012000 0.006000 0.000000 -0.446805 0.009000 0.000000 -0.006000 -0.009000 0.000000 -0.006000 -0.006000 0.000000 -0.006000 -0.006000 0.000000 -0.006000 -0.006000 0.000000 -0.006000 -0.006000 0.000000 -0.006000 -0.006000 0.000000 -0.006000 -0.006000 0.000000 -0.006000 -0.006000 0.000000 -0.006000 -0.006000 0.000000 -0.006000 0.000000 0.000000 -0.006000 0.000000 0.000000 -0.060001 0.006000 0.000000 -0.006000 0.006000 0.000000 -0.006000 0.006000 0.000000 -0.042000 0.006000 0.000000 -0.006000 0.006000 0.000000 -0.006000 0.006000 0.000000 -0.281978 0.006000 0.000000 -0.006000 0.006000 0.000000 -0.504565 0.009000 0.000000 -0.006000 -0.009000 0.000000 -0.006000 -0.006000 0.000000 -0.006000 -0.006000 0.000000 -0.006000 -0.006000 0.000000 -0.006000 -0.006000 0.000000 -0.006000 -0.006000 0.000000 -0.006000 -0.006000 0.000000 -0.006000 -0.006000 0.000000 -0.006000 -0.006000 0.000000 -0.006000 0.000000 0.000000 -0.006000 0.000000 0.000000 -0.048001 0.006000 0.000000 -0.006000 0.006000 0.000000 -0.006000 0.006000 0.000000 -0.048000 0.006000 0.000000 -0.006000 0.006000 0.000000 -0.006000 0.006000 0.000000 -0.362907 0.006000 0.000000 -0.006000 0.006000 0.000000 -0.536294 0.009000 0.000000 -0.006000 -0.009000 0.000000 -0.006000 -0.006000 0.000000 -0.006000 -0.006000 0.000000 -0.006000 -0.006000 0.000000 -0.006000 -0.006000 0.000000 -0.006000 -0.006000 0.000000 -0.006000 -0.006000 0.000000 -0.006000 -0.006000 0.000000 -0.006000 -0.006000 0.000000 -0.006000 0.000000 0.000000 -0.006000 0.000000 0.000000 -0.054000 0.006000 0.000000 -0.006000 0.006000 0.000000 -0.006000 0.006000 0.000000 -0.042000 0.006000 0.000000 -0.006000 0.006000 0.000000 -0.006000 0.006000 0.000000 -0.342003 0.006000 0.000000 -0.006000 0.006000 0.000000 -0.528006 0.009000 0.000000 -0.006000 -0.009000 0.000000 -0.006000 -0.006000 0.000000 -0.006000 -0.006000 0.000000 -0.006000 -0.006000 0.000000 -0.006000 -0.006000 0.000000 -0.006000 -0.006000 0.000000 -0.006000 -0.006000 0.000000 -0.006000 -0.006000 0.000000 -0.006000 -0.006000 0.000000 -0.006000 0.000000 0.000000 -0.006000 0.000000 0.000000 -0.044999 0.006000 0.000000 -0.006000 0.006000 0.000000 -0.006000 0.006000 0.000000 -0.054001 0.006000 0.000000 -0.006000 0.006000 0.000000 -0.006000 0.006000 0.000000 -0.279250 0.006000 0.000000 -0.006000 0.006000 0.000000 -0.526666 0.009000 0.000000 -0.006000 -0.009000 0.000000 -0.006000 -0.006000 0.000000 -0.006000 -0.006000 0.000000 -0.006000 -0.006000 0.000000 -0.006000 -0.006000 0.000000 -0.006000 -0.006000 0.000000 -0.006000 -0.006000 0.000000 -0.006000 -0.006000 0.000000 -0.006000 -0.006000 0.000000 -0.006000 0.000000 0.000000 -0.006000 0.000000 0.000000 -0.036011 0.006000 0.000000 -0.000000 0.006000 0.000000 -0.006000 0.006000 0.000000 -0.060000 0.006000 0.000000 -0.006000 0.006000 0.000000 -0.006000 0.006000 0.000000 -0.303136 0.006000 0.000000 0.000000 0.006000 0.000000 -0.474048 0.009000 0.000000 -0.006000 -0.009000 0.000000 -0.006000 -0.006000 0.000000 -0.006000 -0.006000 0.000000 -0.006000 -0.006000 0.000000 -0.006000 -0.006000 0.000000 -0.006000 -0.006000 0.000000 -0.006000 -0.006000 0.000000 -0.006000 -0.006000 0.000000 -0.006000 -0.006000 0.000000 -0.006000 0.000000 0.000000 -0.006000 0.000000 0.000000 -0.041988 0.006000 0.000000 -0.000000 0.006000 0.000000 -0.006000 0.006000 0.000000 -0.057001 0.006000 0.000000 -0.006000 0.006000 0.000000 -0.006000 0.006000 0.000000 -0.321083 0.006000 0.000000 0.000000 0.006000 0.000000 -0.413588 0.009000 0.000000 -0.006000 -0.009000 0.000000 -0.006000 -0.006000 0.000000 -0.006000 -0.006000 0.000000 -0.006000 -0.006000 0.000000 -0.006000 -0.006000 0.000000 -0.006000 -0.006000 0.000000 -0.006000 -0.006000 0.000000 -0.006000 -0.006000 0.000000 -0.006000 -0.006000 0.000000 -0.006000 0.000000 0.000000 -0.006000 0.000000 0.000000 -0.042026 0.006000 0.000000 -0.000000 0.006000 0.000000 -0.006000 0.006000 0.000000 -0.062999 0.006000 0.000000 -0.006000 0.006000 0.000000 -0.006000 0.006000 0.000000 -0.240027 0.006000 0.000000 -0.000000 0.006000 0.000000 -0.441444 0.009000 0.000000 -0.006000 -0.009000 0.000000 -0.006000 -0.006000 0.000000 -0.006000 -0.006000 0.000000 -0.006000 -0.006000 0.000000 -0.006000 -0.006000 0.000000 -0.006000 -0.006000 0.000000 -0.006000 -0.006000 0.000000 -0.006000 -0.006000 0.000000 -0.006000 -0.006000 0.000000 -0.006000 0.000000 0.000000 -0.006000 0.000000 0.000000 -0.054286 0.006000 0.000000 -0.000000 0.006000 0.000000 -0.006000 0.006000 0.000000 -0.054005 0.006000 0.000000 -0.006000 0.006000 0.000000 -0.006000 0.006000 0.000000 -0.327913 0.005998 0.000000 0.000000 0.006000 0.000000 -0.292202 0.008989 0.000000 -0.006000 -0.009000 0.000000 -0.006000 -0.006000 0.000000 -0.006000 -0.006000 0.000000 -0.006000 -0.006000 0.000000 -0.000000 -0.006000 0.000000 -0.006000 -0.006000 0.000000 -0.006000 -0.006000 0.000000 -0.006000 -0.006000 0.000000 -0.006000 -0.006000 0.000000 -0.006000 0.000000 0.000000 -0.006000 0.000000 0.000000 -0.191711 0.006019 0.000000 -0.000000 0.006000 0.000000 -0.006000 0.006000 0.000000 -0.048001 0.005999 0.000000 -0.006000 0.006000 0.000000 -0.006000 0.006000 0.000000 -0.374296 0.006098 0.000000 0.000000 0.006000 0.000000 -0.520124 0.009438 0.000000 -0.006000 -0.009000 0.000000 -0.006000 -0.006000 0.000000 -0.006000 -0.006000 0.000000 -0.006000 -0.006000 0.000000 0.000000 -0.006000 0.000000 -0.006000 -0.006000 0.000000 -0.006000 -0.006000 0.000000 -0.006000 -0.006000 0.000000 -0.006000 -0.006000 0.000000 -0.006000 0.000000 0.000000 -0.000000 0.000000 0.000000 -0.222106 0.000338 0.000000 0.000000 0.006000 0.000000 -0.006003 0.006000 0.000000 -0.012004 0.005972 0.000000 -0.006000 0.006000 0.000000 -0.008934 0.006000 0.000000 -0.350893 0.008589 0.000000 0.006000 0.006000 0.000000 -0.519270 -0.000460 0.000000 -0.006000 -0.009000 0.000000 -0.006000 -0.012000 0.000000 -0.006001 -0.006000 0.000000 -0.000005 -0.005989 0.000000 0.000013 -0.006000 0.000000 -0.006008 -0.006000 0.000000 -0.005999 -0.005952 0.000000 -0.005999 -0.005992 0.000000 -0.006001 -0.000000 0.000000 -0.006000 -0.000000 0.000000 -0.000000 -0.000000 0.000000 -0.347955 0.014044 0.000000 -0.000002 0.000055 0.000000 -0.006004 -0.000000 0.000000 -0.033316 0.013306 0.000000 -0.005999 0.018000 0.000000 -0.002999 0.012001 0.000000 -0.414547 0.046352 0.000000 0.006242 0.035999 0.000000 -0.665325 0.088645 0.000000 -0.006000 -0.183001 0.000000 -0.006002 -0.180005 0.000000 -0.005996 -0.173940 0.000000 -0.000613 -0.167985 0.000000 0.000448 -0.185984 0.000000 0.001457 -0.320963 0.000000 0.004482 -0.194993 0.000000 0.004415 -0.173999 0.000000 0.002280 -0.203985 0.000000 -0.000993 -0.221841 0.000000 0.001184 -0.227907 0.000000 -0.408311 -0.181901 0.000000 0.011308 -0.267049 0.000000 -0.006869 -0.231000 0.000000 0.108329 -0.194277 0.000000 -0.006070 -0.078024 0.000000 0.010869 -0.107797 0.000000 -2.516548 -0.354785 0.000000 0.029703 -0.083570 0.000000 -3.796225 0.397337 0.000000 -0.010802 -3.465064 0.000000 -0.022824 -3.498071 0.000000 -0.028288 -3.537104 0.000000 0.001673 -3.528139 0.000000 -0.022758 -3.565202 0.000000 -0.077165 -9.587671 0.000000 0.196143 -3.026150 0.000000 -0.408102 -9.362856 0.000000 0.489000 -2.636069 0.000000 -0.845205 -8.172058 0.000000 0.592414 -1.251142 0.000000 0.373530 -1.996328 0.000000 -0.110084 -6.609281 0.000000 0.428607 0.305531 0.000000 0.121508 0.423115 0.000000 0.137000 -1.449944 0.000000 0.694736 -3.264568 0.000000 0.303714 -1.286246 0.000000 -1.781700 0.790273 0.000000 5.440212 -0.580301 0.000000 -0.011359 -3.525072 0.000000 -0.010421 -3.552154 0.000000 -0.026567 -3.507228 0.000000 0.007229 -3.504170 0.000000 -0.029292 -3.543152 0.000000 -0.059294 -9.724705 0.000000 0.162639 -3.108308 0.000000 -0.415321 -9.656305 0.000000 0.527565 -2.645132 0.000000 -0.706384 -9.750298 0.000000 0.432857 -2.330147 0.000000 0.986460 -9.268788 0.000000 -1.192448 -2.240208 0.000000 0.616110 -8.337633 0.000000 0.147296 -0.385525 0.000000 -0.893975 -2.125589 0.000000 1.168899 -5.163483 0.000000 0.769206 -0.066690 0.000000 -2.398530 -1.287823 0.000000 -2.663949 1.620631 0.000000 -0.011462 -3.453048 0.000000 -0.011376 -3.495042 0.000000 -0.019134 -3.495089 0.000000 0.007871 -3.501276 0.000000 -0.026367 -3.500973 0.000000 -0.028038 -9.675903 0.000000 0.253942 -3.104772 0.000000 -0.415853 -9.580253 0.000000 0.415834 -2.676862 0.000000 -0.701662 -9.591075 0.000000 0.356321 -2.344421 0.000000 1.051738 -9.215359 0.000000 -1.063814 -2.066269 0.000000 0.625947 -8.195219 0.000000 0.173516 -0.322852 0.000000 -1.274182 -1.510279 0.000000 1.220371 -4.113214 0.000000 1.337844 -2.818497 0.000000 -1.423635 -9.792166 0.000000 -2.439460 0.451273 0.000000 -0.011578 -3.459072 0.000000 -0.002745 -3.486094 0.000000 -0.010572 -3.483213 0.000000 0.007799 -3.594492 0.000000 -0.033708 -3.592172 0.000000 -0.020499 -9.793224 0.000000 0.161313 -3.114074 0.000000 -0.411783 -9.631205 0.000000 0.430689 -2.623052 0.000000 -0.658553 -9.602699 0.000000 0.198559 -2.326993 0.000000 1.242163 -9.299485 0.000000 -1.617440 -2.068628 0.000000 0.617446 -8.242387 0.000000 0.224771 -0.320609 0.000000 -1.259235 -1.210270 0.000000 0.954982 -2.886384 0.000000 3.694359 -7.407793 0.000000 -2.676165 -6.526242 0.000000 -2.024164 0.483105 0.000000 -0.005778 -3.477085 0.000000 -0.009600 -3.525042 0.000000 -0.017855 -3.528150 0.000000 0.019176 -3.528117 0.000000 -0.030819 -3.519277 0.000000 -0.043596 -9.700388 0.000000 0.178053 -3.072300 0.000000 -0.501455 -9.721150 0.000000 0.432815 -2.657085 0.000000 -0.755187 -9.613371 0.000000 0.116567 -2.376687 0.000000 1.306708 -9.311429 0.000000 -1.599106 -2.057942 0.000000 0.644331 -8.394202 0.000000 0.195542 -0.300789 0.000000 -1.198021 -1.092296 0.000000 0.982891 -2.958844 0.000000 3.538244 -8.627434 0.000000 -2.640761 -5.835787 0.0