<VTKFile type="UnstructuredGrid" version="0.1" byte_order="LittleEndian">
  <UnstructuredGrid>
    <Piece NumberOfPoints="2000" NumberOfCells="0">
      <Points>
        <DataArray name="Position" type="Float32" NumberOfComponents="3" format="ascii">
-0.006789 -0.004076 0.000000 -0.006789 0.997283 0.000000 -0.006789 1.997283 0.000000 -0.006789 2.997283 0.000000 -0.009339 3.997284 0.000000 -0.009473 4.997284 0.000000 -0.009458 5.997284 0.000000 -0.009494 6.997284 0.000000 -0.007373 7.997285 0.000000 -0.009493 9.000000 0.000000 -0.006776 10.000001 0.000000 -0.013438 11.002715 0.000000 -0.006777 12.002716 0.000000 -0.006777 13.002716 0.000000 -0.012864 14.002716 0.000000 -0.006771 15.002716 0.000000 -0.006771 16.002717 0.000000 -0.041113 17.002717 0.000000 -0.006771 18.002717 0.000000 -0.067059 19.004076 0.000000 0.997280 -0.004076 0.000000 0.997280 0.997283 0.000000 0.993592 1.997283 0.000000 0.993328 2.997283 0.000000 0.993314 3.997284 0.000000 0.991892 4.997284 0.000000 0.991962 5.997284 0.000000 0.993310 6.997284 0.000000 0.992657 7.997285 0.000000 0.993561 9.000000 0.000000 0.993259 10.000001 0.000000 0.986796 11.002715 0.000000 0.995573 12.002716 0.000000 0.996873 13.002716 0.000000 0.987657 14.002716 0.000000 0.997225 15.002716 0.000000 0.996619 16.002717 0.000000 0.959629 17.002717 0.000000 0.993320 18.002717 0.000000 0.932899 19.004076 0.000000 1.997283 -0.004076 0.000000 1.997283 0.997269 0.000000 1.997014 1.997282 0.000000 1.993332 2.997276 0.000000 1.993349 3.997283 0.000000 1.993760 4.997283 0.000000 1.993618 5.997284 0.000000 1.993340 6.997284 0.000000 1.992669 7.997307 0.000000 1.993582 9.000000 0.000000 1.993284 10.000001 0.000000 1.987029 11.002715 0.000000 1.995595 12.002716 0.000000 1.996894 13.002716 0.000000 1.988213 14.002716 0.000000 1.997239 15.002716 0.000000 1.996645 16.002717 0.000000 1.960117 17.002717 0.000000 1.993330 18.002717 0.000000 1.933184 19.004077 0.000000 2.997283 -0.004076 0.000000 2.997283 0.996305 0.000000 2.997115 1.996756 0.000000 2.993334 2.997278 0.000000 2.993367 3.997281 0.000000 2.993771 4.997283 0.000000 2.994556 5.997284 0.000000 2.994571 6.997813 0.000000 2.992698 7.998265 0.000000 2.993786 9.000000 0.000000 2.993288 10.000001 0.000000 2.987037 11.002636 0.000000 2.995595 12.002717 0.000000 2.996894 13.002726 0.000000 2.988294 14.002729 0.000000 2.997250 15.002717 0.000000 2.996645 16.002816 0.000000 2.960228 17.002717 0.000000 2.993347 18.002717 0.000000 2.933478 19.004012 0.000000 3.997283 -0.005177 0.000000 3.997283 0.995479 0.000000 3.997123 1.995639 0.000000 3.993403 2.995725 0.000000 3.994488 3.996476 0.000000 3.994561 4.998864 0.000000 3.994572 5.998949 0.000000 3.994576 6.999099 0.000000 3.992705 7.999208 0.000000 3.994571 9.000006 0.000000 3.993307 10.000012 0.000000 3.987095 11.000895 0.000000 3.996427 12.002716 0.000000 3.997077 13.002716 0.000000 3.988519 14.002716 0.000000 3.997254 15.002717 0.000000 3.996950 16.002717 0.000000 3.960185 17.002718 0.000000 3.993354 18.003617 0.000000 3.933961 19.005138 0.000000 4.997284 -0.014849 0.000000 4.997284 0.989175 0.000000 4.997271 1.991831 0.000000 4.996679 2.994523 0.000000 4.995712 3.994546 0.000000 4.994574 4.994560 0.000000 4.994574 5.994572 0.000000 4.994576 6.994574 0.000000 4.992680 7.995270 0.000000 4.994573 8.997269 0.000000 4.993309 9.999230 0.000000 4.987069 10.999869 0.000000 4.996427 12.002716 0.000000 4.997077 13.002716 0.000000 4.988504 14.002716 0.000000 4.997259 15.002716 0.000000 4.996950 16.002717 0.000000 4.960230 17.002717 0.000000 4.993375 18.002717 0.000000 4.933943 19.003944 0.000000 5.997285 -0.006782 0.000000 5.997285 0.994606 0.000000 5.997286 1.995378 0.000000 5.997285 2.995724 0.000000 5.995871 3.997291 0.000000 5.994576 4.998106 0.000000 5.994604 5.998869 0.000000 5.995708 6.999204 0.000000 5.992547 8.000012 0.000000 5.994576 9.000010 0.000000 5.993324 10.000976 0.000000 5.987162 11.001959 0.000000 5.996435 12.002716 0.000000 5.997085 13.002716 0.000000 5.988502 14.002717 0.000000 5.997264 15.002717 0.000000 5.996961 16.002717 0.000000 5.960224 17.002718 0.000000 5.993376 18.003688 0.000000 5.934033 19.004967 0.000000 6.997285 -0.005227 0.000000 6.997285 0.995438 0.000000 6.997286 1.996294 0.000000 6.997285 2.996499 0.000000 6.996476 3.996845 0.000000 6.995372 4.997719 0.000000 6.994614 5.998274 0.000000 6.997274 6.999123 0.000000 6.992347 7.999214 0.000000 6.997274 8.999999 0.000000 6.995270 10.000001 0.000000 6.987338 11.002671 0.000000 6.996445 12.002716 0.000000 6.997095 13.002735 0.000000 6.988515 14.002743 0.000000 6.997269 15.002717 0.000000 6.996970 16.002751 0.000000 6.960241 17.002717 0.000000 6.993376 18.002717 0.000000 6.933925 19.004016 0.000000 7.997285 -0.004076 0.000000 7.997285 0.996638 0.000000 7.997286 1.997283 0.000000 7.997285 2.997283 0.000000 7.997287 3.997283 0.000000 7.996929 4.997283 0.000000 7.995860 5.997284 0.000000 7.997280 6.997285 0.000000 7.992305 7.997924 0.000000 7.997280 8.999999 0.000000 7.995278 10.000001 0.000000 7.987351 11.002715 0.000000 7.997272 12.002716 0.000000 7.997272 13.002716 0.000000 7.988518 14.002716 0.000000 7.997271 15.002716 0.000000 7.997269 16.002717 0.000000 7.960355 17.002717 0.000000 7.993380 18.002717 0.000000 7.933912 19.004077 0.000000 8.997285 -0.004076 0.000000 8.997285 0.997283 0.000000 8.997287 1.997283 0.000000 8.997285 2.997283 0.000000 8.997287 3.997284 0.000000 8.997273 4.997284 0.000000 8.995915 5.997284 0.000000 8.997280 6.997284 0.000000 8.992077 7.997278 0.000000 8.997281 9.000000 0.000000 8.995283 10.000001 0.000000 8.987354 11.002715 0.000000 8.997283 12.002716 0.000000 8.997281 13.002716 0.000000 8.988533 14.002716 0.000000 8.997272 15.002716 0.000000 8.997281 16.002717 0.000000 8.960355 17.002717 0.000000 8.993410 18.002717 0.000000 8.933902 19.004076 0.000000 9.997286 -0.004076 0.000000 9.997286 0.997283 0.000000 9.997287 1.997283 0.000000 9.997286 2.997283 0.000000 9.997287 3.997284 0.000000 9.997281 4.997284 0.000000 9.995936 5.997284 0.000000 9.997281 6.997284 0.000000 9.992048 7.997285 0.000000 9.997281 9.000000 0.000000 9.995285 10.000001 0.000000 9.987747 11.002715 0.000000 9.997283 12.002716 0.000000 9.997283 13.002716 0.000000 9.988625 14.002716 0.000000 9.997281 15.002716 0.000000 9.997283 16.002717 0.000000 9.960399 17.002717 0.000000 9.995306 18.002717 0.000000 9.933950 19.004076 0.000000 10.997286 -0.004076 0.000000 10.997286 0.997283 0.000000 10.997287 1.997283 0.000000 10.997286 2.997283 0.000000 10.997288 3.997284 0.000000 10.997289 4.997284 0.000000 10.995934 5.997284 0.000000 10.997287 6.997284 0.000000 10.992014 7.997285 0.000000 10.997287 9.000000 0.000000 10.995285 10.000001 0.000000 10.987733 11.002715 0.000000 10.997284 12.002716 0.000000 10.997284 13.002716 0.000000 10.988702 14.002716 0.000000 10.997284 15.002716 0.000000 10.997284 16.002717 0.000000 10.960416 17.002717 0.000000 10.995307 18.002717 0.000000 10.933984 19.004076 0.000000 11.997286 -0.004076 0.000000 11.997286 0.997283 0.000000 11.997287 1.997283 0.000000 11.997286 2.997283 0.000000 11.997288 3.997284 0.000000 11.997289 4.997284 0.000000 11.995934 5.997284 0.000000 11.997287 6.997284 0.000000 11.991986 7.997285 0.000000 11.997287 9.000000 0.000000 11.995287 10.000001 0.000000 11.987887 11.002715 0.000000 11.997284 12.002716 0.000000 11.997284 13.002716 0.000000 11.988708 14.002716 0.000000 11.997284 15.002716 0.000000 11.997284 16.002717 0.000000 11.960416 17.002717 0.000000 11.995314 18.002717 0.000000 11.934013 19.004076 0.000000 12.997287 -0.004076 0.000000 12.997287 0.997283 0.000000 12.997288 1.997283 0.000000 12.997287 2.997283 0.000000 12.997288 3.997284 0.000000 12.997289 4.997284 0.000000 12.995920 5.997284 0.000000 12.997288 6.997284 0.000000 12.991936 7.997285 0.000000 12.997288 9.000000 0.000000 12.997270 10.000001 0.000000 12.987786 11.002715 0.000000 12.997284 12.002716 0.000000 12.997284 13.002716 0.000000 12.988711 14.002716 0.000000 12.997284 15.002716 0.000000 12.997284 16.002717 0.000000 12.960453 17.002717 0.000000 12.995316 18.002717 0.000000 12.934017 19.004076 0.000000 13.997287 -0.004076 0.000000 13.997287 0.997283 0.000000 13.997288 1.997283 0.000000 13.997287 2.997283 0.000000 13.997289 3.997284 0.000000 13.997289 4.997284 0.000000 13.995916 5.997284 0.000000 13.997288 6.997284 0.000000 13.991972 7.997285 0.000000 13.997288 9.000000 0.000000 13.997280 10.000001 0.000000 13.987810 11.002715 0.000000 13.997284 12.002716 0.000000 13.997284 13.002716 0.000000 13.988704 14.002716 0.000000 13.997284 15.002716 0.000000 13.997284 16.002717 0.000000 13.960433 17.002717 0.000000 13.995318 18.002717 0.000000 13.934068 19.004076 0.000000 14.997287 -0.004076 0.000000 14.997287 0.997283 0.000000 14.997288 1.997283 0.000000 14.997287 2.997283 0.000000 14.997289 3.997284 0.000000 14.997290 4.997284 0.000000 14.995918 5.997284 0.000000 14.997288 6.997284 0.000000 14.991968 7.997285 0.000000 14.997288 9.000000 0.000000 14.997280 10.000001 0.000000 14.987824 11.002715 0.000000 14.997288 12.002716 0.000000 14.997288 13.002716 0.000000 14.988719 14.002716 0.000000 14.997285 15.002716 0.000000 14.997285 16.002717 0.000000 14.960394 17.002717 0.000000 14.995320 18.002717 0.000000 14.934005 19.004076 0.000000 15.997287 -0.004076 0.000000 15.997287 0.997283 0.000000 15.997289 1.997283 0.000000 15.997287 2.997283 0.000000 15.997289 3.997284 0.000000 15.997290 4.997284 0.000000 15.995919 5.997284 0.000000 15.997289 6.997284 0.000000 15.991983 7.997285 0.000000 15.997289 9.000000 0.000000 15.997283 10.000001 0.000000 15.987815 11.002715 0.000000 15.997290 12.002716 0.000000 15.997290 13.002716 0.000000 15.988768 14.002716 0.000000 15.997285 15.002716 0.000000 15.997285 16.002717 0.000000 15.960383 17.002717 0.000000 15.995345 18.002717 0.000000 15.934083 19.004076 0.000000 16.997288 -0.004076 0.000000 16.997288 0.997283 0.000000 16.997289 1.997283 0.000000 16.997288 2.997283 0.000000 16.997290 3.997284 0.000000 16.997290 4.997284 0.000000 16.995922 5.997284 0.000000 16.997289 6.997284 0.000000 16.991998 7.997285
[...]
      <PointData Vectors="vector">
        <DataArray type="Float32" Name="Velocity" NumberOfComponents="3" format="ascii">
-0.015000 -0.009000 0.000000 -0.015000 -0.006000 0.000000 -0.015000 -0.006000 0.000000 -0.015000 -0.006000 0.000000 -0.021000 -0.006000 0.000000 -0.021000 -0.006000 0.000000 -0.021000 -0.006000 0.000000 -0.021000 -0.006000 0.000000 -0.153002 -0.006000 0.000000 -0.021000 0.000000 0.000000 -0.015000 0.000000 0.000000 -0.333010 0.006000 0.000000 -0.015000 0.006000 0.000000 -0.015000 0.006000 0.000000 -0.291010 0.006000 0.000000 -0.015000 0.006000 0.000000 -0.015000 0.006000 0.000000 -0.591013 0.006000 0.000000 -0.015000 0.006000 0.000000 -0.756011 0.009000 0.000000 -0.006000 -0.009000 0.000000 -0.006000 -0.006000 0.000000 -0.018000 -0.006000 0.000000 -0.018000 -0.006000 0.000000 -0.018000 -0.006000 0.000000 -0.018000 -0.006000 0.000000 -0.018000 -0.006000 0.000000 -0.018000 -0.006000 0.000000 -0.155999 -0.006000 0.000000 -0.018000 0.000000 0.000000 -0.018000 0.000000 0.000000 -0.347998 0.006000 0.000000 -0.018000 0.006000 0.000000 -0.018000 0.006000 0.000000 -0.288010 0.006000 0.000000 -0.018000 0.006000 0.000000 -0.018000 0.006000 0.000000 -0.563999 0.006000 0.000000 -0.018000 0.006000 0.000000 -0.729025 0.009000 0.000000 -0.006000 -0.009000 0.000000 -0.005999 -0.012000 0.000000 -0.017979 -0.005995 0.000000 -0.018022 -0.006000 0.000000 -0.018002 -0.006000 0.000000 -0.017997 -0.006000 0.000000 -0.017999 -0.006000 0.000000 -0.018000 -0.006000 0.000000 -0.168002 -0.000406 0.000000 -0.018000 0.000000 0.000000 -0.018000 0.000000 0.000000 -0.330033 0.006005 0.000000 -0.018000 0.006000 0.000000 -0.018000 0.006000 0.000000 -0.281985 0.005998 0.000000 -0.012000 0.006000 0.000000 -0.018000 0.006000 0.000000 -0.552007 0.006000 0.000000 -0.018000 0.006000 0.000000 -0.726022 0.009035 0.000000 -0.006000 -0.009000 0.000000 -0.006000 -0.012000 0.000000 -0.011971 -0.011985 0.000000 -0.018030 -0.006000 0.000000 -0.018003 -0.005997 0.000000 -0.017998 -0.006009 0.000000 -0.011999 -0.006004 0.000000 -0.011998 -0.000007 0.000000 -0.144001 -0.000108 0.000000 -0.018000 -0.000000 0.000000 -0.018000 -0.000000 0.000000 -0.324002 0.002121 0.000000 -0.017990 0.006000 0.000000 -0.017966 0.006000 0.000000 -0.246059 0.006005 0.000000 -0.011967 0.006000 0.000000 -0.018003 0.012000 0.000000 -0.525009 0.005998 0.000000 -0.018000 0.006000 0.000000 -0.744014 0.007604 0.000000 -0.006000 -0.015000 0.000000 -0.006000 -0.012000 0.000000 -0.011985 -0.011912 0.000000 -0.018016 -0.011929 0.000000 -0.011986 -0.005975 0.000000 -0.012013 0.000042 0.000000 -0.012007 0.000020 0.000000 -0.011993 0.000027 0.000000 -0.219048 0.003420 0.000000 -0.012000 0.000032 0.000000 -0.018000 0.000034 0.000000 -0.350996 -0.000570 0.000000 -0.012000 0.006000 0.000000 -0.012000 0.006000 0.000000 -0.249000 0.005998 0.000000 -0.012000 0.006000 0.000000 -0.012000 0.006000 0.000000 -0.555006 0.006004 0.000000 -0.018001 0.006000 0.000000 -0.591061 0.017945 0.000000 -0.006000 -0.033000 0.000000 -0.006000 -0.030000 0.000000 -0.006000 -0.018105 0.000000 -0.012000 -0.006082 0.000000 -0.012000 -0.012035 0.000000 -0.012001 -0.012065 0.000000 -0.012000 -0.012031 0.000000 -0.012000 -0.012055 0.000000 -0.186032 -0.019244 0.000000 -0.012000 -0.006065 0.000000 -0.018000 -0.000078 0.000000 -0.369208 -0.005218 0.000000 -0.012000 0.006000 0.000000 -0.012000 0.006000 0.000000 -0.282024 0.005999 0.000000 -0.018000 0.006000 0.000000 -0.012000 0.006000 0.000000 -0.512991 0.005995 0.000000 -0.018000 0.006000 0.000000 -0.705095 0.006091 0.000000 -0.006000 -0.015000 0.000000 -0.006000 -0.012000 0.000000 -0.006000 -0.011922 0.000000 -0.006000 -0.011914 0.000000 -0.011988 -0.005958 0.000000 -0.012012 -0.005958 0.000000 -0.012009 0.000021 0.000000 -0.017990 0.000051 0.000000 -0.120094 -0.000806 0.000000 -0.011987 0.006033 0.000000 -0.018003 0.000043 0.000000 -0.354644 0.007859 0.000000 -0.011999 0.006000 0.000000 -0.012000 0.006000 0.000000 -0.338979 0.005996 0.000000 -0.012000 0.006000 0.000000 -0.012000 0.006000 0.000000 -0.591010 0.006005 0.000000 -0.017992 0.006000 0.000000 -0.734999 0.017820 0.000000 -0.006000 -0.015000 0.000000 -0.006000 -0.012000 0.000000 -0.006000 -0.011997 0.000000 -0.006000 -0.005998 0.000000 -0.011981 -0.012000 0.000000 -0.006018 -0.000009 0.000000 -0.012001 -0.000005 0.000000 -0.006000 -0.000005 0.000000 -0.113863 0.000595 0.000000 -0.006000 -0.000000 0.000000 -0.012000 -0.000000 0.000000 -0.335215 0.001808 0.000000 -0.011973 0.006000 0.000000 -0.011959 0.006000 0.000000 -0.276088 0.006010 0.000000 -0.005955 0.006000 0.000000 -0.012002 0.012000 0.000000 -0.570006 0.005997 0.000000 -0.018000 0.006000 0.000000 -0.689954 0.007449 0.000000 -0.006000 -0.009000 0.000000 -0.006000 -0.012000 0.000000 -0.006000 -0.005980 0.000000 -0.006000 -0.005995 0.000000 -0.006000 -0.006000 0.000000 -0.018000 -0.006000 0.000000 -0.174004 -0.006000 0.000000 -0.005992 -0.006013 0.000000 -0.114109 -0.000730 0.000000 -0.006000 0.000000 0.000000 -0.012000 0.000000 0.000000 -0.402180 0.005995 0.000000 -0.006000 0.006000 0.000000 -0.006000 0.006000 0.000000 -0.263998 0.005994 0.000000 -0.012000 0.006000 0.000000 -0.006000 0.006000 0.000000 -0.564029 0.006000 0.000000 -0.018000 0.006000 0.000000 -0.834108 0.009057 0.000000 -0.006000 -0.009000 0.000000 -0.006000 -0.006000 0.000000 -0.006000 -0.006000 0.000000 -0.006000 -0.006000 0.000000 -0.006000 -0.006000 0.000000 -0.006000 -0.006000 0.000000 -0.125997 -0.006000 0.000000 -0.006000 -0.006000 0.000000 -0.164897 -0.006725 0.000000 -0.006000 0.000000 0.000000 -0.012000 0.000000 0.000000 -0.276197 0.006000 0.000000 -0.006000 0.006000 0.000000 -0.006000 0.006000 0.000000 -0.246012 0.006000 0.000000 -0.012000 0.006000 0.000000 -0.006000 0.006000 0.000000 -0.593995 0.006000 0.000000 -0.018000 0.006000 0.000000 -0.585091 0.008999 0.000000 -0.006000 -0.009000 0.000000 -0.006000 -0.006000 0.000000 -0.006000 -0.006000 0.000000 -0.006000 -0.006000 0.000000 -0.006000 -0.006000 0.000000 -0.006000 -0.006000 0.000000 -0.099000 -0.006000 0.000000 -0.006000 -0.006000 0.000000 -0.167995 -0.005998 0.000000 -0.006000 -0.000000 0.000000 -0.012000 0.000000 0.000000 -0.380743 0.006000 0.000000 -0.006000 0.006000 0.000000 -0.006000 0.006000 0.000000 -0.228005 0.006000 0.000000 -0.006000 0.006000 0.000000 -0.006000 0.006000 0.000000 -0.582009 0.006000 0.000000 -0.012000 0.006000 0.000000 -0.665824 0.009000 0.000000 -0.006000 -0.009000 0.000000 -0.006000 -0.006000 0.000000 -0.006000 -0.006000 0.000000 -0.006000 -0.006000 0.000000 -0.006000 -0.006000 0.000000 -0.006000 -0.006000 0.000000 -0.117001 -0.006000 0.000000 -0.006000 -0.006000 0.000000 -0.153133 -0.006000 0.000000 -0.006000 0.000000 0.000000 -0.012000 0.000000 0.000000 -0.344988 0.006000 0.000000 -0.006000 0.006000 0.000000 -0.006000 0.006000 0.000000 -0.245988 0.006000 0.000000 -0.006000 0.006000 0.000000 -0.006000 0.006000 0.000000 -0.504035 0.006000 0.000000 -0.012000 0.006000 0.000000 -0.744101 0.009000 0.000000 -0.006000 -0.009000 0.000000 -0.006000 -0.006000 0.000000 -0.006000 -0.006000 0.000000 -0.006000 -0.006000 0.000000 -0.006000 -0.006000 0.000000 -0.006000 -0.006000 0.000000 -0.077999 -0.006000 0.000000 -0.006000 -0.006000 0.000000 -0.143872 -0.006000 0.000000 -0.006000 0.000000 0.000000 -0.012000 0.000000 0.000000 -0.345510 0.006000 0.000000 -0.006000 0.006000 0.000000 -0.006000 0.006000 0.000000 -0.270006 0.006000 0.000000 -0.006000 0.006000 0.000000 -0.006000 0.006000 0.000000 -0.564006 0.006000 0.000000 -0.012000 0.006000 0.000000 -0.696038 0.009000 0.000000 -0.006000 -0.009000 0.000000 -0.006000 -0.006000 0.000000 -0.006000 -0.006000 0.000000 -0.006000 -0.006000 0.000000 -0.006000 -0.006000 0.000000 -0.006000 -0.006000 0.000000 -0.114000 -0.006000 0.000000 -0.006000 -0.006000 0.000000 -0.171014 -0.006000 0.000000 -0.006000 0.000000 0.000000 -0.006000 0.000000 0.000000 -0.296650 0.006000 0.000000 -0.006000 0.006000 0.000000 -0.006000 0.006000 0.000000 -0.267012 0.006000 0.000000 -0.006000 0.006000 0.000000 -0.006000 0.006000 0.000000 -0.549035 0.006000 0.000000 -0.012000 0.006000 0.000000 -0.804419 0.009000 0.000000 -0.006000 -0.009000 0.000000 -0.006000 -0.006000 0.000000 -0.006000 -0.006000 0.000000 -0.006000 -0.006000 0.000000 -0.006000 -0.006000 0.000000 -0.006000 -0.006000 0.000000 -0.123000 -0.006000 0.000000 -0.006000 -0.006000 0.000000 -0.236978 -0.006000 0.000000 -0.006000 0.000000 0.000000 -0.006000 0.000000 0.000000 -0.251704 0.006000 0.000000 -0.006000 0.006000 0.000000 -0.006000 0.006000 0.000000 -0.272975 0.006000 0.000000 -0.006000 0.006000 0.000000 -0.006000 0.006000 0.000000 -0.599947 0.006000 0.000000 -0.012000 0.006000 0.000000 -0.764937 0.009000 0.000000 -0.006000 -0.009000 0.000000 -0.006000 -0.006000 0.000000 -0.006000 -0.006000 0.000000 -0.006000 -0.006000 0.000000 -0.006000 -0.006000 0.000000 -0.006000 -0.006000 0.000000 -0.144000 -0.006000 0.000000 -0.006000 -0.006000 0.000000 -0.279004 -0.006000 0.000000 -0.006000 0.000000 0.000000 -0.006000 0.000000 0.000000 -0.201002 0.006000 0.000000 -0.006000 0.006000 0.000000 -0.006000 0.006000 0.000000 -0.234003 0.006000 0.000000 -0.006000 0.006000 0.000000 -0.006000 0.006000 0.000000 -0.534053 0.006000 0.000000 -0.012000 0.006000 0.000000 -0.747132 0.009000 0.000000 -0.006000 -0.009000 0.000000 -0.006000 -0.006000 0.000000 -0.006000 -0.006000 0.000000 -0.006000 -0.006000 0.000000 -0.006000 -0.006000 0.000000 -0.006000 -0.006000 0.000000 -0.144001 -0.006000 0.000000 -0.006000 -0.006000 0.000000 -0.222008 -0.006000 0.000000 -0.006000 0.000000 0.000000 -0.006000 0.000000 0.000000 -0.219463 0.006000 0.000000 -0.006000 0.006000 0.000000 -0.006000 0.006000 0.000000 -0.240108 0.006000 0.000000 -0.006000 0.006000 0.000000 -0.006000 0.006000 0.000000 -0.600037 0.006000 0.000000 -0.012000 0.006000 0.000000 -0.689827 0.009000 0.000000 -0.006000 -0.009000 0.000000 -0.006000 -0.006000 0.000000 -0.006000 -0.006000 0.000000 -0.006000 -0.006000 0.000000 -0.006000 -0.006000 0.000000 -0.006000 -0.006000 0.000000 -0.150000 -0.006000 0.000000 -0.006000 -0.006000 0.000000 -0.240100 -0.006000 0.000000 -0.006000 0.000000 0.000000 -0.006000 0.000000 0.000000 -0.221873 0.006000 0.000000 -0.006000 0.006000 0.000000 -0.006000 0.006000 0.000000 -0.266952 0.006000 0.000000 -0.006000 0.006000 0.000000 -0.006000 0.006000 0.000000 -0.591170 0.006000 0.000000 -0.012000 0.006000 0.000000 -0.725969 0.009000 0.000000 -0.006000 -0.009000 0.000000 -0.006000 -0.006000 0.000000 -0.006000 -0.006000 0.000000 -0.006000 -0.006000 0.000000 -0.006000 -0.006000 0.000000 -0.006000 -0.006000 0.000000 -0.144000 -0.006000 0.000000 -0.006000 -0.006000 0.000000 -0.221946 -0.006000 0.000000 -0.006000 0.000000 0.000000 -0.006000 0.000000 0.000000 -0.185984 0.006000 0.000000 -0.006000 0.006000 0.000000 -0.006000 0.006000 0.000000 -0.294026 0.006000 0.000000 -0.006000 0.006000 0.000000 -0.006000 0.006000 0.000000 -0.510006 0.006000 0.000000 -0.099001 0.006000 0.000000 -0.774505 0.009000 0.000000 -0.006000 -0.009000 0.000000 -0.006000 -0.006000 0.000000 -0.006000 -0.006000 0.000000 -0.006000 -0.006000 0.000000 -0.006000 -0.006000 0.000000 -0.006000 -0.006000 0.000000 -0.141001 -0.006000 0.000000 -0.006000 -0.006000 0.000000 -0.227967 -0.006000 0.000000 -0.006000 0.000000 0.000000 -0.006000 0.000000 0.000000 -0.234018 0.006000 0.000000 -0.006000 0.006000 0.000000 -0.006000 0.006000 0.000000 -0.201016 0.006000 0.000000 -0.006000 0.006000 0.000000 -0.006000 0.006000 0.000000 -0.539704 0.006000 0.000000 -0.129000 0.006000 0.000000 -0.725027 0.009000 0.000000 -0.006000 -0.009000 0.000000 -0.006000 -0.006000 0.000000 -0.006000 -0.006000 0.000000 -0.006000 -0.006000 0.000000 -0.006000 -0.006000 0.000000 -0.006000 -0.006000 0.000000 -0.153002 -0.006000 0.000000 -0.006000 -0.006000 0.000000 -0.278989 -0.006000 0.000000 -0.006000 0.000000 0.000000 -0.006000 0.000000 0.000000 -0.221824 0.006000 0.000000 -0.006000 0.006000 0.000000 -0.006000 0.006000 0.000000 -0.261023 0.006000 0.000000 -0.006000 0.006000 0.000000 -0.006000 0.006000 0.000000 -0.552000 0.006000 0.000000 -0.099000 0.006000 0.000000 -0.704999 0.009000 0.000000 -0.006000 -0.009000 0.000000 -0.006000 -0.006000 0.000000 -0.006000 -0.006000 0.000000 -0.006000 -0.006000 0.000000 -0.006000 -0.006000 0.000000 -0.006000 -0.006000 0.000000 -0.132001 -0.006000 0.000000 -0.006000 -0.006000 0.000000 -0.246010 -0.006000 0.000000 -0.006000 0.000000 0.000000 -0.006000 0.000000 0.000000 -0.204882 0.006000 0.000000 -0.006000 0.006000 0.000000 -0.000000 0.006000 0.000000 -0.269954 0.006000 0.000000 -0.006000 0.006000 0.000000 -0.000000 0.006000 0.000000 -0.507534 0.006000 0.000000 -0.123268 0.006000 0.000000 -0.751855 0.009000 0.000000 -0.006000 -0.009000 0.000000 -0.006000 -0.006000 0.000000 -0.006000 -0.006000 0.000000 -0.006000 -0.006000 0.000000 -0.006000 -0.006000 0.000000 -0.006000 -0.006000 0.000000 -0.141001 -0.006000 0.000000 -0.006000 -0.006000 0.000000 -0.201028 -0.006000 0.000000 -0.006000 0.000000 0.000000 -0.006000 0.000000 0.000000 -0.215123 0.006000 0.000000 -0.000000 0.006000 0.000000 -0.000000 0.006000 0.000000 -0.279100 0.006000 0.000000 0.006000 0.006000 0.000000 0.000000 0.006000 0.000000 -0.588140 0.006000 0.000000 -0.281748 0.006000 0.000000 -0.699151 0.009000 0.000000 -0.006000 -0.009000 0.000000 -0.006000 -0.006000 0.000000 -0.006000 -0.006000 0.000000 -0.006000 -0.006000 0.000000 -0.006000 -0.006000 0.000000 -0.006000 -0.006000 0.000000 -0.131998 -0.006000 0.000000 -0.006000 -0.006000 0.000000 -0.260991 -0.006000 0.000000 -0.006000 0.000000 0.000000 -0.006000 0.000000 0.000000 -0.264358 0.006000 0.000000 -0.000000 0.006000 0.000000 -0.000000 0.006000 0.000000 -0.248922 0.006000 0.000000 0.000000 0.006000 0.000000 0.000000 0.006000 0.000000 -0.540185 0.006000 0.000000 -0.299985 0.006000 0.000000 -0.708037 0.009000 0.000000 -0.006000 -0.009000 0.000000 -0.006000 -0.006000 0.000000 -0.006000 -0.006000 0.000000 -0.006000 -0.006000 0.000000 -0.006000 -0.006000 0.000000 -0.006000 -0.006000 0.000000 -0.135006 -0.006000 0.000000 -0.006000 -0.006000 0.000000 -0.179979 -0.006000 0.000000 -0.006000 0.000000 0.000000 -0.006000 0.000000 0.000000 -0.269854 0.006001 0.000000 -0.000000 0.006000 0.000000 -0.000000 0.006000 0.000000 -0.228157 0.006000 0.000000 -0.000000 0.006000 0.000000 0.000000 0.006000 0.000000 -0.570423 0.006002 0.000000 -0.300014 0.006000 0.000000 -0.802378 0.009012 0.000000 -0.006000 -0.009000 0.000000 -0.006000 -0.006000 0.000000 -0.006000 -0.006000 0.000000 -0.006000 -0.006000 0.000000 -0.006000 -0.006000 0.000000 -0.006000 -0.006000 0.000000 -0.117002 -0.006000 0.000000 -0.006000 -0.006000 0.000000 -0.180018 -0.005993 0.000000 -0.006000 0.000000 0.000000 -0.006000 0.000000 0.000000 -0.286680 0.005934 0.000000 -0.000000 0.006000 0.000000 -0.000000 0.006000 0.000000 -0.240042 0.006000 0.000000 0.000000 0.006000 0.000000 -0.000000 0.006000 0.000000 -0.577388 0.005956 0.000000 -0.312019 0.006000 0.000000 -0.724237 0.008634 0.000000 -0.006000 -0.009000 0.000000 -0.006000 -0.006000 0.000000 -0.000000 -0.006000 0.000000 -0.006000 -0.006000 0.000000 -0.000000 -0.006000 0.000000 -0.006000 -0.006000 0.000000 -0.126017 -0.005998 0.000000 -0.006000 -0.006000 0.000000 -0.180088 -0.006466 0.000000 -0.006000 0.000000 0.000000 -0.006000 0.000000 0.000000 -0.188785 0.007628 0.000000 -0.000000 0.006000 0.000000 -0.000000 0.006000 0.000000 -0.246106 0.005992 0.000000 -0.000000 0.005997 0.000000 -0.000000 0.006000 0.000000 -0.589273 0.006825 0.000000 -0.334845 0.006073 0.000000 -0.719459 0.015616 0.000000 -0.006000 -0.009000 0.000000 -0.006000 -0.012000 0.000000 0.000001 -0.011999 0.000000 -0.006016 -0.006000 0.000000 0.000030 -0.006000 0.000000 -0.000006 -0.006000 0.000000 -0.124370 -0.006449 0.000000 -0.005991 -0.000000 0.000000 -0.187755 -0.003725 0.000000 -0.006000 0.000000 0.000000 -0.000000 0.000000 0.000000 -0.241215 -0.003435 0.000000 0.000004 -0.000000 0.000000 0.006022 0.000001 0.000000 -0.282246 0.002051 0.000000 0.006032 0.011988 0.000000 0.006066 0.011998 0.000000 -0.638828 -0.022216 0.000000 -0.404859 -0.003396 0.000000 -0.840904 -0.050079 0.000000 -0.006000 -0.009000 0.000000 -0.006000 -0.012000 0.000000 0.005997 -0.012001 0.000000 -0.000008 -0.005989 0.000000 0.000026 -0.006000 0.000000 -0.000017 -0.006000 0.000000 -0.209532 0.019998 0.000000 -0.005879 0.036008 0.000000 -0.231210 0.107248 0.000000 -0.006000 -0.000000 0.000000 -0.000000 -0.000000 0.000000 -0.340479 0.059364 0.000000 0.001405 0.060044 0.000000 0.005961 0.041999 0.000000 -0.277503 0.063593 0.000000 0.006392 0.066014 0.000000 0.006013 0.054003 0.000000 -2.592993 0.346053 0.000000 -0.540939 0.193293 0.000000 -2.955545 0.014865 0.000000 -0.006000 -0.525009 0.000000 -0.006005 -0.534030 0.000000 -0.006449 -0.587956 0.000000 -0.001579 -0.408015 0.000000 0.001382 -0.603051 0.000000 0.007018 -0.362958 0.000000 -0.350405 -0.499742 0.000000 0.023757 -0.590825 0.000000 -0.628449 -0.549542 0.000000 0.007278 -0.572915 0.000000 0.027190 -0.500654 0.000000 -0.510071 -0.539023 0.000000 0.023780 -0.420154 0.000000 -0.003757 -0.473986 0.000000 -0.315881 -0.555950 0.000000 -0.008761 -0.990273 0.000000 0.277409 -0.909930 0.000000 -0.708408 -1.321445 0.000000 -2.845867 -3.434742 0.000000 2.513862 1.351019 0.000000 -0.014048 -5.613096 0.000000 -0.021386 -5.556129 0.000000 -0.055804 -5.541341 0.000000 0.061455 -9.374390 0.000000 -0.147477 -4.135494 0.000000 -0.433889 -8.755043 0.000000 0.933928 -2.063236 0.000000 -1.290800 -6.619050 0.000000 1.912696 -2.105379 0.000000 -0.781540 -1.922629 0.000000 0.967818 -6.065665 0.000000 0.800672 0.028648 0.000000 -0.419294 2.336143 0.000000 0.493227 -1.191506 0.000000 0.254570 -1.805891 0.000000 -0.175608 -1.449539 0.000000 1.588052 1.319772 0.000000 0.131806 1.461264 0.000000 1.153088 4.017464 0.000000 7.045186 -2.237465 0.000000 -0.010959 -5.637159 0.000000 -0.009672 -5.607459 0.000000 -0.071729 -6.623861 0.000000 0.095936 -8.572923 0.000000 -0.102413 -7.429021 0.000000 -0.393487 -6.232554 0.000000 1.134572 -7.844950 0.000000 -2.425427 -4.575309 0.000000 2.943048 -7.012031 0.000000 -3.133316 -5.720346 0.000000 0.730226 -3.307847 0.000000 3.366194 -6.822350 0.000000 -3.350299 -2.847821 0.000000 1.637204 -1.244243 0.000000 0.758109 -4.726972 0.000000 -2.556576 -4.520527 0.000000 1.844083 -0.584534 0.000000 -4.577471 -5.149250 0.000000 -1.318181 2.188625 0.000000 4.236067 -7.574657 0.000000 -0.011014 -5.571038 0.000000 -0.002152 -5.529070 0.000000 -0.048657 -5.488713 0.000000 0.088686 -9.665492 0.000000 -0.134032 -7.549515 0.000000 -0.307801 -5.891524 0.000000 1.434093 -7.620174 0.000000 -2.344044 -4.537699 0.000000 2.479719 -4.144483 0.000000 -2.631469 -7.522655 0.000000 0.778193 -2.421624 0.000000 3.414023 -6.343027 0.000000 -3.149118 -1.852934 0.000000 1.648907 -0.568991 0.000000 0.652859 -4.522588 0.000000 -3.081031 -4.364324 0.000000 2.691782 -4.605847 0.000000 2.865166 -3.811587 0.000000 1.950427 -3.656392 0.000000 14.603147 -15.890811 0.000000 -0.006577 -5.610165 0.000000 -0.013379 -5.742899 0.000000 -0.058043 -7.976162 0.000000 0.089837 -6.942440 0.000000 -0.142700 -7.390300 0.000000 -0.245900 -6.419559 0.000000 1.127410 -6.429041 0.000000 -2.243923 -5.809479 0.000000 2.578956 -3.891372 0.000000 -2.602271 -7.758912 0.000000 0.040522 -2.302217 0.000000 3.953459 -6.060007 0.000000 -3.652650 -2.389259 0.000000 1.676394 -1.151953 0.000000 0.676924 -8.015548 0.000000 -2.698648 -3.599351 0.000000 1.586690 -4.250424 0.000000 2.732728 -3.769377 0.000000 -0.162632 -1.863006 0.000000 -0.802723 -4.885070 0.000000 -0.005013 -5.541124 0.000000 0.001287 -5.643233 0.000000 -0.041666 -6.634090 0.000000 0.135643 -8.527863 0.000000 -0.115267 -8.232334 0.000000 -0.222005 -5.269714 0.000000 1.218338 -7.200482 0.000000 -2.468602 -5.245864 0.000000 2.779412 -4.996188 0.000000 -2.939989 -6.841482 0.000000 1.266957 -2.561717 0.000000 3.151889 -6.274157 0.000000 -3.878499 -2.281325 0.000000 1.712544 -1.205487 0.000000 0.647862 -8.014830 0.000000 -3.009191 -3.413773 0.000000 1.468851 -4.296843 0.000000 2.721402 -8.671250 0.000000 0.113906 -6.320519 0.000000 