<VTKFile type="UnstructuredGrid" version="0.1" byte_order="LittleEndian">
  <UnstructuredGrid>
    <Piece NumberOfPoints="2000" NumberOfCells="0">
      <Points>
        <DataArray name="Position" type="Float32" NumberOfComponents="3" format="ascii">
-0.001344 -0.000809 0.000000 -0.001344 0.999461 0.000000 -0.001344 1.999461 0.000000 -0.001344 2.999461 0.000000 -0.001716 3.999462 0.000000 -0.001850 4.999462 0.000000 -0.001835 5.999462 0.000000 -0.001871 6.999462 0.000000 -0.001335 7.999463 0.000000 -0.001870 9.000000 0.000000 -0.001331 10.000001 0.000000 -0.001330 11.000537 0.000000 -0.001332 12.000538 0.000000 -0.001332 13.000538 0.000000 -0.001332 14.000538 0.000000 -0.001326 15.000538 0.000000 -0.001326 16.000539 0.000000 -0.001326 17.000539 0.000000 -0.001326 18.000539 0.000000 -0.001326 19.000809 0.000000 0.999458 -0.000809 0.000000 0.999458 0.999461 0.000000 0.999458 1.999461 0.000000 0.999458 2.999461 0.000000 0.998842 3.999462 0.000000 0.998426 4.999462 0.000000 0.998496 5.999462 0.000000 0.998927 6.999462 0.000000 0.999453 7.999463 0.000000 0.998928 9.000000 0.000000 0.999451 10.000001 0.000000 0.999451 11.000537 0.000000 0.999452 12.000538 0.000000 0.999452 13.000538 0.000000 0.999452 14.000538 0.000000 0.999449 15.000538 0.000000 0.999449 16.000539 0.000000 0.999449 17.000539 0.000000 0.999449 18.000539 0.000000 0.999449 19.000809 0.000000 1.999461 -0.000809 0.000000 1.999461 0.999461 0.000000 1.999461 1.999461 0.000000 1.999461 2.999461 0.000000 1.999457 3.999462 0.000000 1.998919 4.999462 0.000000 1.998912 5.999462 0.000000 1.998931 6.999462 0.000000 1.999461 7.999463 0.000000 1.998931 9.000000 0.000000 1.999461 10.000001 0.000000 1.999461 11.000537 0.000000 1.999461 12.000538 0.000000 1.999461 13.000538 0.000000 1.999461 14.000538 0.000000 1.999461 15.000538 0.000000 1.999461 16.000539 0.000000 1.999461 17.000539 0.000000 1.999461 18.000539 0.000000 1.999461 19.000809 0.000000 2.999461 -0.000809 0.000000 2.999461 0.999461 0.000000 2.999461 1.999461 0.000000 2.999461 2.999461 0.000000 2.999460 3.999462 0.000000 2.998927 4.999462 0.000000 2.998929 5.999462 0.000000 2.998935 6.999462 0.000000 2.999461 7.999463 0.000000 2.998935 9.000000 0.000000 2.999461 10.000001 0.000000 2.999461 11.000537 0.000000 2.999461 12.000538 0.000000 2.999461 13.000538 0.000000 2.999461 14.000538 0.000000 2.999461 15.000538 0.000000 2.999461 16.000539 0.000000 2.999461 17.000539 0.000000 2.999461 18.000539 0.000000 2.999461 19.000809 0.000000 3.999461 -0.000809 0.000000 3.999461 0.999461 0.000000 3.999461 1.999461 0.000000 3.999461 2.999461 0.000000 3.999460 3.999462 0.000000 3.998929 4.999462 0.000000 3.998934 5.999462 0.000000 3.999455 6.999462 0.000000 3.999461 7.999463 0.000000 3.999455 9.000000 0.000000 3.999461 10.000001 0.000000 3.999461 11.000537 0.000000 3.999461 12.000538 0.000000 3.999461 13.000538 0.000000 3.999461 14.000538 0.000000 3.999461 15.000538 0.000000 3.999461 16.000539 0.000000 3.999461 17.000539 0.000000 3.999461 18.000539 0.000000 3.999461 19.000809 0.000000 4.999462 -0.002870 0.000000 4.999462 0.998372 0.000000 4.999462 1.998393 0.000000 4.999462 2.998399 0.000000 4.999461 3.998913 0.000000 4.998930 4.998925 0.000000 4.998965 5.998934 0.000000 4.999460 6.998946 0.000000 4.999461 7.999462 0.000000 4.999460 8.999462 0.000000 4.999461 9.999462 0.000000 4.999461 11.000001 0.000000 4.999462 12.000538 0.000000 4.999462 13.000538 0.000000 4.999462 14.000538 0.000000 4.999462 15.000538 0.000000 4.999462 16.000539 0.000000 4.999462 17.000539 0.000000 4.999462 18.000539 0.000000 4.999462 19.000809 0.000000 5.999463 -0.001337 0.000000 5.999463 0.998962 0.000000 5.999463 1.999454 0.000000 5.999463 2.999461 0.000000 5.999463 3.999461 0.000000 5.998936 4.999461 0.000000 5.998970 5.999462 0.000000 5.999460 6.999961 0.000000 5.999462 7.999999 0.000000 5.999460 9.000000 0.000000 5.999462 10.000001 0.000000 5.999461 11.000537 0.000000 5.999462 12.000538 0.000000 5.999462 13.000538 0.000000 5.999462 14.000538 0.000000 5.999462 15.000538 0.000000 5.999462 16.000539 0.000000 5.999462 17.000539 0.000000 5.999462 18.000539 0.000000 5.999462 19.000809 0.000000 6.999463 -0.000809 0.000000 6.999463 0.999461 0.000000 6.999463 1.999461 0.000000 6.999463 2.999461 0.000000 6.999463 3.999462 0.000000 6.999453 4.999462 0.000000 6.999453 5.999462 0.000000 6.999461 6.999463 0.000000 6.999462 7.999463 0.000000 6.999461 8.999999 0.000000 6.999462 10.000001 0.000000 6.999462 11.000537 0.000000 6.999462 12.000538 0.000000 6.999462 13.000538 0.000000 6.999462 14.000538 0.000000 6.999462 15.000538 0.000000 6.999462 16.000539 0.000000 6.999462 17.000539 0.000000 6.999462 18.000539 0.000000 6.999462 19.000809 0.000000 7.999463 -0.000809 0.000000 7.999463 0.999461 0.000000 7.999463 1.999461 0.000000 7.999463 2.999461 0.000000 7.999464 3.999462 0.000000 7.999459 4.999462 0.000000 7.999459 5.999462 0.000000 7.999462 6.999462 0.000000 7.999463 7.999463 0.000000 7.999462 8.999999 0.000000 7.999462 10.000001 0.000000 7.999462 11.000537 0.000000 7.999462 12.000538 0.000000 7.999462 13.000538 0.000000 7.999462 14.000538 0.000000 7.999462 15.000538 0.000000 7.999462 16.000539 0.000000 7.999462 17.000539 0.000000 7.999462 18.000539 0.000000 7.999462 19.000809 0.000000 8.999463 -0.000809 0.000000 8.999463 0.999461 0.000000 8.999463 1.999461 0.000000 8.999463 2.999461 0.000000 8.999464 3.999462 0.000000 8.999460 4.999462 0.000000 8.999461 5.999462 0.000000 8.999463 6.999462 0.000000 8.999463 7.999463 0.000000 8.999463 9.000000 0.000000 8.999463 10.000001 0.000000 8.999463 11.000537 0.000000 8.999463 12.000538 0.000000 8.999463 13.000538 0.000000 8.999463 14.000538 0.000000 8.999463 15.000538 0.000000 8.999463 16.000539 0.000000 8.999463 17.000539 0.000000 8.999463 18.000539 0.000000 8.999463 19.000809 0.000000 9.999464 -0.000809 0.000000 9.999464 0.999461 0.000000 9.999464 1.999461 0.000000 9.999464 2.999461 0.000000 9.999464 3.999462 0.000000 9.999462 4.999462 0.000000 9.999462 5.999462 0.000000 9.999464 6.999462 0.000000 9.999463 7.999463 0.000000 9.999463 9.000000 0.000000 9.999463 10.000001 0.000000 9.999463 11.000537 0.000000 9.999463 12.000538 0.000000 9.999463 13.000538 0.000000 9.999463 14.000538 0.000000 9.999463 15.000538 0.000000 9.999463 16.000539 0.000000 9.999463 17.000539 0.000000 9.999463 18.000539 0.000000 9.999463 19.000809 0.000000 10.999464 -0.000809 0.000000 10.999464 0.999461 0.000000 10.999464 1.999461 0.000000 10.999464 2.999461 0.000000 10.999465 3.999462 0.000000 10.999467 4.999462 0.000000 10.999467 5.999462 0.000000 10.999465 6.999462 0.000000 10.999464 7.999463 0.000000 10.999465 9.000000 0.000000 10.999463 10.000001 0.000000 10.999463 11.000537 0.000000 10.999463 12.000538 0.000000 10.999463 13.000538 0.000000 10.999463 14.000538 0.000000 10.999463 15.000538 0.000000 10.999463 16.000539 0.000000 10.999463 17.000539 0.000000 10.999463 18.000539 0.000000 10.999463 19.000809 0.000000 11.999464 -0.000809 0.000000 11.999464 0.999461 0.000000 11.999464 1.999461 0.000000 11.999464 2.999461 0.000000 11.999465 3.999462 0.000000 11.999467 4.999462 0.000000 11.999467 5.999462 0.000000 11.999465 6.999462 0.000000 11.999464 7.999463 0.000000 11.999465 9.000000 0.000000 11.999464 10.000001 0.000000 11.999464 11.000537 0.000000 11.999464 12.000538 0.000000 11.999464 13.000538 0.000000 11.999464 14.000538 0.000000 11.999464 15.000538 0.000000 11.999464 16.000539 0.000000 11.999464 17.000539 0.000000 11.999464 18.000539 0.000000 11.999464 19.000809 0.000000 12.999465 -0.000809 0.000000 12.999465 0.999461 0.000000 12.999465 1.999461 0.000000 12.999465 2.999461 0.000000 12.999465 3.999462 0.000000 12.999467 4.999462 0.000000 12.999467 5.999462 0.000000 12.999466 6.999462 0.000000 12.999465 7.999463 0.000000 12.999466 9.000000 0.000000 12.999464 10.000001 0.000000 12.999464 11.000537 0.000000 12.999464 12.000538 0.000000 12.999464 13.000538 0.000000 12.999464 14.000538 0.000000 12.999464 15.000538 0.000000 12.999464 16.000539 0.000000 12.999464 17.000539 0.000000 12.999464 18.000539 0.000000 12.999464 19.000809 0.000000 13.999465 -0.000809 0.000000 13.999465 0.999461 0.000000 13.999465 1.999461 0.000000 13.999465 2.999461 0.000000 13.999465 3.999462 0.000000 13.999467 4.999462 0.000000 13.999467 5.999462 0.000000 13.999466 6.999462 0.000000 13.999465 7.999463 0.000000 13.999466 9.000000 0.000000 13.999464 10.000001 0.000000 13.999464 11.000537 0.000000 13.999464 12.000538 0.000000 13.999464 13.000538 0.000000 13.999464 14.000538 0.000000 13.999464 15.000538 0.000000 13.999464 16.000539 0.000000 13.999464 17.000539 0.000000 13.999464 18.000539 0.000000 13.999464 19.000809 0.000000 14.999465 -0.000809 0.000000 14.999465 0.999461 0.000000 14.999465 1.999461 0.000000 14.999465 2.999461 0.000000 14.999466 3.999462 0.000000 14.999468 4.999462 0.000000 14.999468 5.999462 0.000000 14.999466 6.999462 0.000000 14.999465 7.999463 0.000000 14.999466 9.000000 0.000000 14.999465 10.000001 0.000000 14.999465 11.000537 0.000000 14.999465 12.000538 0.000000 14.999465 13.000538 0.000000 14.999465 14.000538 0.000000 14.999465 15.000538 0.000000 14.999465 16.000539 0.000000 14.999465 17.000539 0.000000 14.999465 18.000539 0.000000 14.999465 19.000809 0.000000 15.999465 -0.000809 0.000000 15.999465 0.999461 0.000000 15.999465 1.999461 0.000000 15.999465 2.999461 0.000000 15.999466 3.999462 0.000000 15.999468 4.999462 0.000000 15.999468 5.999462 0.000000 15.999467 6.999462 0.000000 15.999465 7.999463 0.000000 15.999467 9.000000 0.000000 15.999466 10.000001 0.000000 15.999466 11.000537 0.000000 15.999466 12.000538 0.000000 15.999466 13.000538 0.000000 15.999466 14.000538 0.000000 15.999465 15.000538 0.000000 15.999465 16.000539 0.000000 15.999465 17.000539 0.000000 15.999465 18.000539 0.000000 15.999465 19.000809 0.000000 16.999466 -0.000809 0.000000 16.999466 0.999461 0.000000 16.999466 1.999461 0.000000 16.999466 2.999461 0.000000 16.999466 3.999462 0.000000 16.999468 4.999462 0.000000 16.999468 5.999462 0.000000 16.999467 6.999462 0.000000 16.999466 7.999463
[...]
      <PointData Vectors="vector">
        <DataArray type="Float32" Name="Velocity" NumberOfComponents="3" format="ascii">
-0.015000 -0.009000 0.000000 -0.015000 -0.006000 0.000000 -0.015000 -0.006000 0.000000 -0.015000 -0.006000 0.000000 -0.021000 -0.006000 0.000000 -0.021000 -0.006000 0.000000 -0.021000 -0.006000 0.000000 -0.021000 -0.006000 0.000000 -0.015000 -0.006000 0.000000 -0.021000 0.000000 0.000000 -0.015000 0.000000 0.000000 -0.015000 0.006000 0.000000 -0.015000 0.006000 0.000000 -0.015000 0.006000 0.000000 -0.015000 0.006000 0.000000 -0.015000 0.006000 0.000000 -0.015000 0.006000 0.000000 -0.015000 0.006000 0.000000 -0.015000 0.006000 0.000000 -0.015000 0.009000 0.000000 -0.006000 -0.009000 0.000000 -0.006000 -0.006000 0.000000 -0.006000 -0.006000 0.000000 -0.006000 -0.006000 0.000000 -0.012000 -0.006000 0.000000 -0.018000 -0.006000 0.000000 -0.018000 -0.006000 0.000000 -0.012000 -0.006000 0.000000 -0.006000 -0.006000 0.000000 -0.012000 0.000000 0.000000 -0.006000 0.000000 0.000000 -0.006000 0.006000 0.000000 -0.006000 0.006000 0.000000 -0.006000 0.006000 0.000000 -0.006000 0.006000 0.000000 -0.006000 0.006000 0.000000 -0.006000 0.006000 0.000000 -0.006000 0.006000 0.000000 -0.006000 0.006000 0.000000 -0.006000 0.009000 0.000000 -0.006000 -0.009000 0.000000 -0.006000 -0.006000 0.000000 -0.006000 -0.006000 0.000000 -0.006000 -0.006000 0.000000 -0.006000 -0.006000 0.000000 -0.012000 -0.006000 0.000000 -0.012000 -0.006000 0.000000 -0.012000 -0.006000 0.000000 -0.006000 -0.006000 0.000000 -0.012000 0.000000 0.000000 -0.006000 0.000000 0.000000 -0.006000 0.006000 0.000000 -0.006000 0.006000 0.000000 -0.006000 0.006000 0.000000 -0.006000 0.006000 0.000000 -0.006000 0.006000 0.000000 -0.006000 0.006000 0.000000 -0.006000 0.006000 0.000000 -0.006000 0.006000 0.000000 -0.006000 0.009000 0.000000 -0.006000 -0.009000 0.000000 -0.006000 -0.006000 0.000000 -0.006000 -0.006000 0.000000 -0.006000 -0.006000 0.000000 -0.006000 -0.006000 0.000000 -0.012000 -0.006000 0.000000 -0.012000 -0.006000 0.000000 -0.012000 -0.006000 0.000000 -0.006000 -0.006000 0.000000 -0.012000 -0.000000 0.000000 -0.006000 -0.000000 0.000000 -0.006000 0.006000 0.000000 -0.006000 0.006000 0.000000 -0.006000 0.006000 0.000000 -0.006000 0.006000 0.000000 -0.006000 0.006000 0.000000 -0.006000 0.006000 0.000000 -0.006000 0.006000 0.000000 -0.006000 0.006000 0.000000 -0.006000 0.009000 0.000000 -0.006000 -0.009000 0.000000 -0.006000 -0.006000 0.000000 -0.006000 -0.006000 0.000000 -0.006000 -0.006000 0.000000 -0.006000 -0.005999 0.000000 -0.012000 -0.006000 0.000000 -0.012000 -0.005999 0.000000 -0.006000 -0.006000 0.000000 -0.006000 -0.006000 0.000000 -0.006000 0.000000 0.000000 -0.006000 0.000000 0.000000 -0.006000 0.006000 0.000000 -0.006000 0.006000 0.000000 -0.006000 0.006000 0.000000 -0.006000 0.006000 0.000000 -0.006000 0.006000 0.000000 -0.006000 0.006000 0.000000 -0.006000 0.006000 0.000000 -0.006000 0.006000 0.000000 -0.006000 0.009000 0.000000 -0.006000 -0.033000 0.000000 -0.006000 -0.018000 0.000000 -0.006000 -0.018000 0.000000 -0.006000 -0.018000 0.000000 -0.006000 -0.012001 0.000000 -0.012001 -0.012001 0.000000 -0.012000 -0.012001 0.000000 -0.006000 -0.012000 0.000000 -0.006000 -0.006000 0.000000 -0.006000 -0.006000 0.000000 -0.006000 -0.006000 0.000000 -0.006000 -0.000000 0.000000 -0.006000 0.006000 0.000000 -0.006000 0.006000 0.000000 -0.006000 0.006000 0.000000 -0.006000 0.006000 0.000000 -0.006000 0.006000 0.000000 -0.006000 0.006000 0.000000 -0.006000 0.006000 0.000000 -0.006000 0.009000 0.000000 -0.006000 -0.015000 0.000000 -0.006000 -0.012000 0.000000 -0.006000 -0.006000 0.000000 -0.006000 -0.006000 0.000000 -0.006000 -0.005999 0.000000 -0.012000 -0.006000 0.000000 -0.012000 -0.005999 0.000000 -0.006000 -0.000000 0.000000 -0.006000 0.000000 0.000000 -0.006000 0.000000 0.000000 -0.006000 0.000000 0.000000 -0.006000 0.006000 0.000000 -0.006000 0.006000 0.000000 -0.006000 0.006000 0.000000 -0.006000 0.006000 0.000000 -0.006000 0.006000 0.000000 -0.006000 0.006000 0.000000 -0.006000 0.006000 0.000000 -0.006000 0.006000 0.000000 -0.006000 0.009000 0.000000 -0.006000 -0.009000 0.000000 -0.006000 -0.006000 0.000000 -0.006000 -0.006000 0.000000 -0.006000 -0.006000 0.000000 -0.006000 -0.006000 0.000000 -0.006000 -0.006000 0.000000 -0.006000 -0.006000 0.000000 -0.006000 -0.006000 0.000000 -0.006000 -0.006000 0.000000 -0.006000 -0.000000 0.000000 -0.006000 0.000000 0.000000 -0.006000 0.006000 0.000000 -0.006000 0.006000 0.000000 -0.006000 0.006000 0.000000 -0.006000 0.006000 0.000000 -0.006000 0.006000 0.000000 -0.006000 0.006000 0.000000 -0.006000 0.006000 0.000000 -0.006000 0.006000 0.000000 -0.006000 0.009000 0.000000 -0.006000 -0.009000 0.000000 -0.006000 -0.006000 0.000000 -0.006000 -0.006000 0.000000 -0.006000 -0.006000 0.000000 -0.006000 -0.006000 0.000000 -0.006000 -0.006000 0.000000 -0.006000 -0.006000 0.000000 -0.006000 -0.006000 0.000000 -0.006000 -0.006000 0.000000 -0.006000 0.000000 0.000000 -0.006000 0.000000 0.000000 -0.006000 0.006000 0.000000 -0.006000 0.006000 0.000000 -0.006000 0.006000 0.000000 -0.006000 0.006000 0.000000 -0.006000 0.006000 0.000000 -0.006000 0.006000 0.000000 -0.006000 0.006000 0.000000 -0.006000 0.006000 0.000000 -0.006000 0.009000 0.000000 -0.006000 -0.009000 0.000000 -0.006000 -0.006000 0.000000 -0.006000 -0.006000 0.000000 -0.006000 -0.006000 0.000000 -0.006000 -0.006000 0.000000 -0.006000 -0.006000 0.000000 -0.006000 -0.006000 0.000000 -0.006000 -0.006000 0.000000 -0.006000 -0.006000 0.000000 -0.006000 0.000000 0.000000 -0.006000 0.000000 0.000000 -0.006000 0.006000 0.000000 -0.006000 0.006000 0.000000 -0.006000 0.006000 0.000000 -0.006000 0.006000 0.000000 -0.006000 0.006000 0.000000 -0.006000 0.006000 0.000000 -0.006000 0.006000 0.000000 -0.006000 0.006000 0.000000 -0.006000 0.009000 0.000000 -0.006000 -0.009000 0.000000 -0.006000 -0.006000 0.000000 -0.006000 -0.006000 0.000000 -0.006000 -0.006000 0.000000 -0.006000 -0.006000 0.000000 -0.006000 -0.006000 0.000000 -0.006000 -0.006000 0.000000 -0.006000 -0.006000 0.000000 -0.006000 -0.006000 0.000000 -0.006000 -0.000000 0.000000 -0.006000 0.000000 0.000000 -0.006000 0.006000 0.000000 -0.006000 0.006000 0.000000 -0.006000 0.006000 0.000000 -0.006000 0.006000 0.000000 -0.006000 0.006000 0.000000 -0.006000 0.006000 0.000000 -0.006000 0.006000 0.000000 -0.006000 0.006000 0.000000 -0.006000 0.009000 0.000000 -0.006000 -0.009000 0.000000 -0.006000 -0.006000 0.000000 -0.006000 -0.006000 0.000000 -0.006000 -0.006000 0.000000 -0.006000 -0.006000 0.000000 -0.006000 -0.006000 0.000000 -0.006000 -0.006000 0.000000 -0.006000 -0.006000 0.000000 -0.006000 -0.006000 0.000000 -0.006000 0.000000 0.000000 -0.006000 0.000000 0.000000 -0.006000 0.006000 0.000000 -0.006000 0.006000 0.000000 -0.006000 0.006000 0.000000 -0.006000 0.006000 0.000000 -0.006000 0.006000 0.000000 -0.006000 0.006000 0.000000 -0.006000 0.006000 0.000000 -0.006000 0.006000 0.000000 -0.006000 0.009000 0.000000 -0.006000 -0.009000 0.000000 -0.006000 -0.006000 0.000000 -0.006000 -0.006000 0.000000 -0.006000 -0.006000 0.000000 -0.006000 -0.006000 0.000000 -0.006000 -0.006000 0.000000 -0.006000 -0.006000 0.000000 -0.006000 -0.006000 0.000000 -0.006000 -0.006000 0.000000 -0.006000 0.000000 0.000000 -0.006000 0.000000 0.000000 -0.006000 0.006000 0.000000 -0.006000 0.006000 0.000000 -0.006000 0.006000 0.000000 -0.006000 0.006000 0.000000 -0.006000 0.006000 0.000000 -0.006000 0.006000 0.000000 -0.006000 0.006000 0.000000 -0.006000 0.006000 0.000000 -0.006000 0.009000 0.000000 -0.006000 -0.009000 0.000000 -0.006000 -0.006000 0.000000 -0.006000 -0.006000 0.000000 -0.006000 -0.006000 0.000000 -0.006000 -0.006000 0.000000 -0.006000 -0.006000 0.000000 -0.006000 -0.006000 0.000000 -0.006000 -0.006000 0.000000 -0.006000 -0.006000 0.000000 -0.006000 0.000000 0.000000 -0.006000 0.000000 0.000000 -0.006000 0.006000 0.000000 -0.006000 0.006000 0.000000 -0.006000 0.006000 0.000000 -0.006000 0.006000 0.000000 -0.006000 0.006000 0.000000 -0.006000 0.006000 0.000000 -0.006000 0.006000 0.000000 -0.006000 0.006000 0.000000 -0.006000 0.009000 0.000000 -0.006000 -0.009000 0.000000 -0.006000 -0.006000 0.000000 -0.006000 -0.006000 0.000000 -0.006000 -0.006000 0.000000 -0.006000 -0.006000 0.000000 -0.006000 -0.006000 0.000000 -0.006000 -0.006000 0.000000 -0.006000 -0.006000 0.000000 -0.006000 -0.006000 0.000000 -0.006000 0.000000 0.000000 -0.006000 0.000000 0.000000 -0.006000 0.006000 0.000000 -0.006000 0.006000 0.000000 -0.006000 0.006000 0.000000 -0.006000 0.006000 0.000000 -0.006000 0.006000 0.000000 -0.006000 0.006000 0.000000 -0.006000 0.006000 0.000000 -0.006000 0.006000 0.000000 -0.006000 0.009000 0.000000 -0.006000 -0.009000 0.000000 -0.006000 -0.006000 0.000000 -0.006000 -0.006000 0.000000 -0.006000 -0.006000 0.000000 -0.006000 -0.006000 0.000000 -0.006000 -0.006000 0.000000 -0.006000 -0.006000 0.000000 -0.006000 -0.006000 0.000000 -0.006000 -0.006000 0.000000 -0.006000 0.000000 0.000000 -0.006000 0.000000 0.000000 -0.006000 0.006000 0.000000 -0.006000 0.006000 0.000000 -0.006000 0.006000 0.000000 -0.006000 0.006000 0.000000 -0.006000 0.006000 0.000000 -0.006000 0.006000 0.000000 -0.006000 0.006000 0.000000 -0.006000 0.006000 0.000000 -0.006000 0.009000 0.000000 -0.006000 -0.009000 0.000000 -0.006000 -0.006000 0.000000 -0.006000 -0.006000 0.000000 -0.006000 -0.006000 0.000000 -0.006000 -0.006000 0.000000 -0.006000 -0.006000 0.000000 -0.006000 -0.006000 0.000000 -0.006000 -0.006000 0.000000 -0.006000 -0.006000 0.000000 -0.006000 0.000000 0.000000 -0.006000 0.000000 0.000000 -0.006000 0.006000 0.000000 -0.006000 0.006000 0.000000 -0.006000 0.006000 0.000000 -0.006000 0.006000 0.000000 -0.006000 0.006000 0.000000 -0.006000 0.006000 0.000000 -0.006000 0.006000 0.000000 -0.006000 0.006000 0.000000 -0.006000 0.009000 0.000000 -0.006000 -0.009000 0.000000 -0.006000 -0.006000 0.000000 -0.006000 -0.006000 0.000000 -0.006000 -0.006000 0.000000 -0.006000 -0.006000 0.000000 -0.006000 -0.006000 0.000000 -0.006000 -0.006000 0.000000 -0.006000 -0.006000 0.000000 -0.006000 -0.006000 0.000000 -0.006000 0.000000 0.000000 -0.006000 0.000000 0.000000 -0.006000 0.006000 0.000000 -0.006000 0.006000 0.000000 -0.006000 0.006000 0.000000 -0.006000 0.006000 0.000000 -0.006000 0.006000 0.000000 -0.006000 0.006000 0.000000 -0.006000 0.006000 0.000000 -0.006000 0.006000 0.000000 -0.006000 0.009000 0.000000 -0.006000 -0.009000 0.000000 -0.006000 -0.006000 0.000000 -0.006000 -0.006000 0.000000 -0.006000 -0.006000 0.000000 -0.006000 -0.006000 0.000000 -0.006000 -0.006000 0.000000 -0.006000 -0.006000 0.000000 -0.006000 -0.006000 0.000000 -0.006000 -0.006000 0.000000 -0.006000 0.000000 0.000000 -0.006000 0.000000 0.000000 -0.006000 0.006000 0.000000 -0.006000 0.006000 0.000000 -0.006000 0.006000 0.000000 -0.006000 0.006000 0.000000 -0.006000 0.006000 0.000000 -0.006000 0.006000 0.000000 -0.006000 0.006000 0.000000 -0.006000 0.006000 0.000000 -0.006000 0.009000 0.000000 -0.006000 -0.009000 0.000000 -0.006000 -0.006000 0.000000 -0.006000 -0.006000 0.000000 -0.006000 -0.006000 0.000000 -0.006000 -0.006000 0.000000 -0.006000 -0.006000 0.000000 -0.006000 -0.006000 0.000000 -0.006000 -0.006000 0.000000 -0.006000 -0.006000 0.000000 -0.006000 0.000000 0.000000 -0.006000 0.000000 0.000000 -0.006000 0.006000 0.000000 -0.006000 0.006000 0.000000 -0.006000 0.006000 0.000000 -0.006000 0.006000 0.000000 -0.006000 0.006000 0.000000 -0.006000 0.006000 0.000000 -0.006000 0.006000 0.000000 -0.006000 0.006000 0.000000 -0.006000 0.009000 0.000000 -0.006000 -0.009000 0.000000 -0.006000 -0.006000 0.000000 -0.006000 -0.006000 0.000000 -0.006000 -0.006000 0.000000 -0.006000 -0.006000 0.000000 -0.006000 -0.006000 0.000000 -0.006000 -0.006000 0.000000 -0.006000 -0.006000 0.000000 -0.006000 -0.006000 0.000000 -0.006000 0.000000 0.000000 -0.006000 0.000000 0.000000 -0.006000 0.006000 0.000000 -0.006000 0.006000 0.000000 -0.006000 0.006000 0.000000 -0.006000 0.006000 0.000000 -0.006000 0.006000 0.000000 -0.006000 0.006000 0.000000 -0.006000 0.006000 0.000000 -0.006000 0.006000 0.000000 -0.006000 0.009000 0.000000 -0.006000 -0.009000 0.000000 -0.006000 -0.006000 0.000000 -0.006000 -0.006000 0.000000 -0.006000 -0.006000 0.000000 -0.006000 -0.006000 0.000000 -0.006000 -0.006000 0.000000 -0.006000 -0.006000 0.000000 -0.006000 -0.006000 0.000000 -0.006000 -0.006000 0.000000 -0.006000 0.000000 0.000000 -0.006000 0.000000 0.000000 -0.006000 0.006000 0.000000 -0.006000 0.006000 0.000000 -0.006000 0.006000 0.000000 -0.006000 0.006000 0.000000 -0.006000 0.006000 0.000000 -0.006000 0.006000 0.000000 -0.006000 0.006000 0.000000 -0.006000 0.006000 0.000000 -0.006000 0.009000 0.000000 -0.006000 -0.009000 0.000000 -0.006000 -0.006000 0.000000 -0.006000 -0.006000 0.000000 -0.006000 -0.006000 0.000000 -0.006000 -0.006000 0.000000 -0.006000 -0.006000 0.000000 -0.006000 -0.006000 0.000000 -0.006000 -0.006000 0.000000 -0.006000 -0.006000 0.000000 -0.006000 0.000000 0.000000 -0.006000 0.000000 0.000000 -0.006000 0.006000 0.000000 -0.006000 0.006000 0.000000 -0.006000 0.006000 0.000000 -0.006000 0.006000 0.000000 -0.006000 0.006000 0.000000 -0.006000 0.006000 0.000000 -0.006000 0.006000 0.000000 -0.006000 0.006000 0.000000 -0.006000 0.009000 0.000000 -0.006000 -0.009000 0.000000 -0.006000 -0.006000 0.000000 -0.006000 -0.006000 0.000000 -0.006000 -0.006000 0.000000 -0.006000 -0.006000 0.000000 -0.006000 -0.006000 0.000000 -0.006000 -0.006000 0.000000 -0.006000 -0.006000 0.000000 -0.006000 -0.006000 0.000000 -0.006000 0.000000 0.000000 -0.006000 0.000000 0.000000 -0.006000 0.006000 0.000000 -0.006000 0.006000 0.000000 -0.006000 0.006000 0.000000 -0.006000 0.006000 0.000000 -0.006000 0.006000 0.000000 -0.006000 0.006000 0.000000 -0.006000 0.006000 0.000000 -0.006000 0.006000 0.000000 -0.006000 0.009000 0.000000 -0.006000 -0.009000 0.000000 -0.006000 -0.006000 0.000000 -0.006000 -0.006000 0.000000 -0.006000 -0.006000 0.000000 -0.006000 -0.006000 0.000000 -0.006000 -0.006000 0.000000 -0.006000 -0.006000 0.000000 -0.006000 -0.006000 0.000000 -0.006000 -0.006000 0.000000 -0.006000 0.000000 0.000000 -0.006000 0.000000 0.000000 -0.006000 0.006000 0.000000 -0.006000 0.006000 0.000000 -0.006000 0.006000 0.000000 -0.006000 0.006000 0.000000 -0.006000 0.006000 0.000000 -0.006000 0.006000 0.000000 -0.006000 0.006000 0.000000 -0.006000 0.006000 0.000000 -0.006000 0.009000 0.000000 -0.006000 -0.009000 0.000000 -0.006000 -0.006000 0.000000 -0.006000 -0.006000 0.000000 -0.006000 -0.006000 0.000000 -0.006000 -0.006000 0.000000 -0.006000 -0.006000 0.000000 -0.006000 -0.006000 0.000000 -0.006000 -0.006000 0.000000 -0.006000 -0.006000 0.000000 -0.006000 0.000000 0.000000 -0.006000 0.000000 0.000000 -0.006000 0.006000 0.000000 -0.006000 0.006000 0.000000 -0.006000 0.006000 0.000000 -0.006000 0.006000 0.000000 -0.006000 0.006000 0.000000 -0.006000 0.006000 0.000000 -0.006000 0.006000 0.000000 -0.006000 0.006000 0.000000 -0.006000 0.009000 0.000000 -0.006000 -0.009000 0.000000 -0.006000 -0.006000 0.000000 -0.006000 -0.006000 0.000000 -0.006000 -0.006000 0.000000 -0.006000 -0.006000 0.000000 -0.006000 -0.006000 0.000000 -0.006000 -0.006000 0.000000 -0.006000 -0.006000 0.000000 -0.006000 -0.006000 0.000000 -0.006000 0.000000 0.000000 -0.006000 0.000000 0.000000 -0.006000 0.006000 0.000000 -0.006000 0.006000 0.000000 -0.006000 0.006000 0.000000 -0.006000 0.006000 0.000000 -0.006000 0.006000 0.000000 -0.006000 0.006000 0.000000 -0.006000 0.006000 0.000000 -0.006000 0.006000 0.000000 -0.006000 0.009000 0.000000 -0.006000 -0.009000 0.000000 -0.006000 -0.006000 0.000000 -0.006000 -0.006000 0.000000 -0.006000 -0.006000 0.000000 -0.006000 -0.006000 0.000000 -0.006000 -0.006000 0.000000 -0.006000 -0.006000 0.000000 -0.006000 -0.006000 0.000000 -0.006000 -0.006000 0.000000 -0.006000 0.000000 0.000000 -0.006000 0.000000 0.000000 -0.006000 0.006000 0.000000 -0.006000 0.006000 0.000000 -0.006000 0.006000 0.000000 -0.006000 0.006000 0.000000 -0.006000 0.006000 0.000000 -0.006000 0.006000 0.000000 -0.006000 0.006000 0.000000 -0.006000 0.006000 0.000000 -0.006000 0.009000 0.000000 -0.006000 -0.009000 0.000000 -0.006000 -0.006000 0.000000 -0.006000 -0.006000 0.000000 -0.006000 -0.006000 0.000000 -0.006000 -0.006000 0.000000 -0.006000 -0.006000 0.000000 -0.006000 -0.006000 0.000000 -0.006000 -0.006000 0.000000 -0.006000 -0.006000 0.000000 -0.006000 0.000000 0.000000 -0.006000 0.000000 0.000000 -0.006000 0.006000 0.000000 -0.006000 0.006000 0.000000 -0.006000 0.006000 0.000000 -0.006000 0.006000 0.000000 -0.006000 0.006000 0.000000 -0.006000 0.006000 0.000000 -0.006000 0.006000 0.000000 -0.006000 0.006000 0.000000 -0.006000 0.009000 0.000000 -0.006000 -0.009000 0.000000 -0.006000 -0.006000 0.000000 -0.006000 -0.006000 0.000000 -0.006000 -0.006000 0.000000 -0.006000 -0.006000 0.000000 -0.006000 -0.006000 0.000000 -0.006000 -0.006000 0.000000 -0.006000 -0.006000 0.000000 -0.006000 -0.006000 0.000000 -0.006000 0.000000 0.000000 -0.006000 0.000000 0.000000 -0.006000 0.006000 0.000000 -0.006000 0.006000 0.000000 -0.006000 0.006000 0.000000 -0.006000 0.006000 0.000000 -0.006000 0.006000 0.000000 -0.006000 0.006000 0.000000 -0.006000 0.006000 0.000000 -0.006000 0.006000 0.000000 -0.006000 0.009000 0.000000 -0.006000 -0.009000 0.000000 -0.006000 -0.006000 0.000000 -0.006000 -0.006000 0.000000 -0.006000 -0.006000 0.000000 -0.006000 -0.006000 0.000000 -0.006000 -0.006000 0.000000 -0.006000 -0.006000 0.000000 -0.006000 -0.006000 0.000000 -0.006000 -0.006000 0.000000 -0.006000 0.000000 0.000000 -0.006000 0.000000 0.000000 -0.006000 0.006000 0.000000 -0.006000 0.006000 0.000000 -0.006000 0.006000 0.000000 -0.006000 0.006000 0.000000 -0.006000 0.006000 0.000000 -0.006000 0.006000 0.000000 -0.006000 0.006000 0.000000 -0.006000 0.006000 0.000000 -0.006000 0.009000 0.000000 -0.006000 -0.009000 0.000000 -0.006000 -0.006000 0.000000 -0.006000 -0.006000 0.000000 -0.006000 -0.006000 0.000000 -0.006000 -0.006000 0.000000 -0.006000 -0.006000 0.000000 -0.006000 -0.006000 0.000000 -0.006000 -0.006000 0.000000 -0.006000 -0.006000 0.000000 -0.006000 0.000000 0.000000 -0.006000 0.000000 0.000000 -0.006000 0.006000 0.000000 -0.006000 0.006000 0.000000 -0.006000 0.006000 0.000000 -0.006000 0.006000 0.000000 -0.006000 0.006000 0.000000 -0.006000 0.006000 0.000000 -0.006000 0.006000 0.000000 -0.006000 0.006000 0.000000 -0.006000 0.009000 0.000000 -0.006000 -0.009000 0.000000 -0.006000 -0.006000 0.000000 -0.006000 -0.006000 0.000000 -0.006000 -0.006000 0.000000 -0.006000 -0.006000 0.000000 -0.006000 -0.006000 0.000000 -0.006000 -0.006000 0.000000 -0.006000 -0.006000 0.000000 -0.006000 -0.006000 0.000000 -0.006000 0.000000 0.000000 -0.006000 0.000000 0.000000 -0.006000 0.006000 0.000000 -0.006000 0.006000 0.000000 -0.006000 0.006000 0.000000 -0.006000 0.006000 0.000000 -0.006000 0.006000 0.000000 -0.006000 0.006000 0.000000 -0.006000 0.006000 0.000000 -0.006000 0.006000 0.000000 -0.006000 0.009000 0.000000 -0.006000 -0.009000 0.000000 -0.006000 -0.006000 0.000000 -0.006000 -0.006000 0.000000 -0.006000 -0.006000 0.000000 -0.006000 -0.006000 0.000000 0.000000 -0.006000 0.000000 0.000000 -0.006000 0.000000 -0.006000 -0.006000 0.000000 -0.006000 -0.006000 0.000000 -0.006000 0.000000 0.000000 -0.006000 0.000000 0.000000 -0.006000 0.006000 0.000000 -0.006000 0.006000 0.000000 -0.006000 0.006000 0.000000 -0.006000 0.006000 0.000000 -0.006000 0.006000 0.000000 -0.006000 0.006000 0.000000 -0.006000 0.006000 0.000000 -0.006000 0.006000 0.000000 -0.006000 0.009000 0.000000 -0.006000 -0.009000 0.000000 -0.006000 -0.006000 0.000000 -0.006000 -0.006000 0.000000 -0.006000 -0.006000 0.000000 -0.006000 -0.006000 0.000000 0.000000 -0.006000 0.000000 0.000000 -0.006000 0.000000 -0.006000 -0.006000 0.000000 -0.006000 -0.006000 0.000000 -0.006000 0.000000 0.000000 -0.006000 0.000000 0.000000 -0.006000 0.006000 0.000000 -0.006000 0.006000 0.000000 -0.006000 0.006000 0.000000 -0.006000 0.006000 0.000000 -0.006000 0.006000 0.000000 -0.006000 0.006000 0.000000 -0.006000 0.006000 0.000000 -0.006000 0.006