<VTKFile type="UnstructuredGrid" version="0.1" byte_order="LittleEndian">
  <UnstructuredGrid>
    <Piece NumberOfPoints="2000" NumberOfCells="0">
      <Points>
        <DataArray name="Position" type="Float32" NumberOfComponents="3" format="ascii">
-0.001704 -0.001025 0.000000 -0.001704 0.999317 0.000000 -0.001704 1.999317 0.000000 -0.001704 2.999317 0.000000 -0.002220 3.999318 0.000000 -0.002354 4.999318 0.000000 -0.002339 5.999318 0.000000 -0.002375 6.999318 0.000000 -0.001695 7.999319 0.000000 -0.002374 9.000000 0.000000 -0.001691 10.000001 0.000000 -0.001690 11.000681 0.000000 -0.001692 12.000682 0.000000 -0.001692 13.000682 0.000000 -0.001692 14.000682 0.000000 -0.001686 15.000682 0.000000 -0.001686 16.000683 0.000000 -0.001686 17.000683 0.000000 -0.001686 18.000683 0.000000 -0.001686 19.001025 0.000000 0.999314 -0.001025 0.000000 0.999314 0.999317 0.000000 0.999314 1.999317 0.000000 0.999314 2.999317 0.000000 0.998554 3.999318 0.000000 0.997994 4.999318 0.000000 0.998064 5.999318 0.000000 0.998639 6.999318 0.000000 0.999309 7.999319 0.000000 0.998640 9.000000 0.000000 0.999307 10.000001 0.000000 0.999307 11.000681 0.000000 0.999308 12.000682 0.000000 0.999308 13.000682 0.000000 0.999308 14.000682 0.000000 0.999305 15.000682 0.000000 0.999305 16.000683 0.000000 0.999305 17.000683 0.000000 0.999305 18.000683 0.000000 0.999214 19.001025 0.000000 1.999317 -0.001025 0.000000 1.999317 0.999317 0.000000 1.999317 1.999317 0.000000 1.999317 2.999317 0.000000 1.999313 3.999318 0.000000 1.998631 4.999318 0.000000 1.998624 5.999318 0.000000 1.998643 6.999318 0.000000 1.999317 7.999319 0.000000 1.998643 9.000000 0.000000 1.999317 10.000001 0.000000 1.999317 11.000681 0.000000 1.999317 12.000682 0.000000 1.999317 13.000682 0.000000 1.999317 14.000682 0.000000 1.999317 15.000682 0.000000 1.999317 16.000683 0.000000 1.999317 17.000683 0.000000 1.999317 18.000683 0.000000 1.999228 19.001025 0.000000 2.999317 -0.001025 0.000000 2.999317 0.999317 0.000000 2.999317 1.999317 0.000000 2.999317 2.999317 0.000000 2.999316 3.999318 0.000000 2.998639 4.999318 0.000000 2.998641 5.999318 0.000000 2.998647 6.999318 0.000000 2.999317 7.999319 0.000000 2.998647 9.000000 0.000000 2.999317 10.000001 0.000000 2.999317 11.000681 0.000000 2.999317 12.000682 0.000000 2.999317 13.000682 0.000000 2.999317 14.000682 0.000000 2.999317 15.000682 0.000000 2.999317 16.000683 0.000000 2.999317 17.000683 0.000000 2.999317 18.000683 0.000000 2.999239 19.001025 0.000000 3.999317 -0.001025 0.000000 3.999317 0.999317 0.000000 3.999317 1.999317 0.000000 3.999317 2.999317 0.000000 3.999316 3.999318 0.000000 3.998641 4.999318 0.000000 3.998646 5.999318 0.000000 3.999311 6.999318 0.000000 3.999317 7.999319 0.000000 3.999311 9.000000 0.000000 3.999317 10.000001 0.000000 3.999317 11.000681 0.000000 3.999317 12.000682 0.000000 3.999317 13.000682 0.000000 3.999317 14.000682 0.000000 3.999317 15.000682 0.000000 3.999317 16.000683 0.000000 3.999317 17.000683 0.000000 3.999317 18.000683 0.000000 3.999250 19.001025 0.000000 4.999318 -0.003662 0.000000 4.999318 0.997940 0.000000 4.999318 1.997961 0.000000 4.999318 2.997967 0.000000 4.999317 3.998625 0.000000 4.998642 4.998637 0.000000 4.998677 5.998646 0.000000 4.999316 6.998658 0.000000 4.999317 7.999318 0.000000 4.999316 8.999318 0.000000 4.999317 9.999318 0.000000 4.999317 11.000001 0.000000 4.999318 12.000682 0.000000 4.999318 13.000682 0.000000 4.999318 14.000682 0.000000 4.999318 15.000682 0.000000 4.999318 16.000683 0.000000 4.999318 17.000683 0.000000 4.999318 18.000683 0.000000 4.999272 19.001025 0.000000 5.999319 -0.001697 0.000000 5.999319 0.998674 0.000000 5.999319 1.999310 0.000000 5.999319 2.999317 0.000000 5.999319 3.999317 0.000000 5.998648 4.999317 0.000000 5.998682 5.999318 0.000000 5.999316 6.999961 0.000000 5.999318 7.999999 0.000000 5.999316 9.000000 0.000000 5.999318 10.000001 0.000000 5.999317 11.000681 0.000000 5.999318 12.000682 0.000000 5.999318 13.000682 0.000000 5.999318 14.000682 0.000000 5.999318 15.000682 0.000000 5.999318 16.000683 0.000000 5.999318 17.000683 0.000000 5.999318 18.000683 0.000000 5.999274 19.001025 0.000000 6.999319 -0.001025 0.000000 6.999319 0.999317 0.000000 6.999319 1.999317 0.000000 6.999319 2.999317 0.000000 6.999319 3.999318 0.000000 6.999309 4.999318 0.000000 6.999309 5.999318 0.000000 6.999317 6.999319 0.000000 6.999318 7.999319 0.000000 6.999317 8.999999 0.000000 6.999318 10.000001 0.000000 6.999318 11.000681 0.000000 6.999318 12.000682 0.000000 6.999318 13.000682 0.000000 6.999318 14.000682 0.000000 6.999318 15.000682 0.000000 6.999318 16.000683 0.000000 6.999318 17.000683 0.000000 6.999318 18.000683 0.000000 6.999275 19.001025 0.000000 7.999319 -0.001025 0.000000 7.999319 0.999317 0.000000 7.999319 1.999317 0.000000 7.999319 2.999317 0.000000 7.999320 3.999318 0.000000 7.999315 4.999318 0.000000 7.999315 5.999318 0.000000 7.999318 6.999318 0.000000 7.999319 7.999319 0.000000 7.999318 8.999999 0.000000 7.999318 10.000001 0.000000 7.999318 11.000681 0.000000 7.999318 12.000682 0.000000 7.999318 13.000682 0.000000 7.999318 14.000682 0.000000 7.999318 15.000682 0.000000 7.999318 16.000683 0.000000 7.999318 17.000683 0.000000 7.999318 18.000683 0.000000 7.999277 19.001025 0.000000 8.999319 -0.001025 0.000000 8.999319 0.999317 0.000000 8.999319 1.999317 0.000000 8.999319 2.999317 0.000000 8.999320 3.999318 0.000000 8.999316 4.999318 0.000000 8.999317 5.999318 0.000000 8.999319 6.999318 0.000000 8.999319 7.999319 0.000000 8.999319 9.000000 0.000000 8.999319 10.000001 0.000000 8.999319 11.000681 0.000000 8.999319 12.000682 0.000000 8.999319 13.000682 0.000000 8.999319 14.000682 0.000000 8.999319 15.000682 0.000000 8.999319 16.000683 0.000000 8.999319 17.000683 0.000000 8.999319 18.000683 0.000000 8.999279 19.001025 0.000000 9.999320 -0.001025 0.000000 9.999320 0.999317 0.000000 9.999320 1.999317 0.000000 9.999320 2.999317 0.000000 9.999320 3.999318 0.000000 9.999318 4.999318 0.000000 9.999318 5.999318 0.000000 9.999320 6.999318 0.000000 9.999319 7.999319 0.000000 9.999319 9.000000 0.000000 9.999319 10.000001 0.000000 9.999319 11.000681 0.000000 9.999319 12.000682 0.000000 9.999319 13.000682 0.000000 9.999319 14.000682 0.000000 9.999319 15.000682 0.000000 9.999319 16.000683 0.000000 9.999319 17.000683 0.000000 9.999319 18.000683 0.000000 9.999283 19.001025 0.000000 10.999320 -0.001025 0.000000 10.999320 0.999317 0.000000 10.999320 1.999317 0.000000 10.999320 2.999317 0.000000 10.999321 3.999318 0.000000 10.999323 4.999318 0.000000 10.999323 5.999318 0.000000 10.999321 6.999318 0.000000 10.999320 7.999319 0.000000 10.999321 9.000000 0.000000 10.999319 10.000001 0.000000 10.999319 11.000681 0.000000 10.999319 12.000682 0.000000 10.999319 13.000682 0.000000 10.999319 14.000682 0.000000 10.999319 15.000682 0.000000 10.999319 16.000683 0.000000 10.999319 17.000683 0.000000 10.999319 18.000683 0.000000 10.999285 19.001025 0.000000 11.999320 -0.001025 0.000000 11.999320 0.999317 0.000000 11.999320 1.999317 0.000000 11.999320 2.999317 0.000000 11.999321 3.999318 0.000000 11.999323 4.999318 0.000000 11.999323 5.999318 0.000000 11.999321 6.999318 0.000000 11.999320 7.999319 0.000000 11.999321 9.000000 0.000000 11.999320 10.000001 0.000000 11.999320 11.000681 0.000000 11.999320 12.000682 0.000000 11.999320 13.000682 0.000000 11.999320 14.000682 0.000000 11.999320 15.000682 0.000000 11.999320 16.000683 0.000000 11.999320 17.000683 0.000000 11.999320 18.000683 0.000000 11.999295 19.001025 0.000000 12.999321 -0.001025 0.000000 12.999321 0.999317 0.000000 12.999321 1.999317 0.000000 12.999321 2.999317 0.000000 12.999321 3.999318 0.000000 12.999323 4.999318 0.000000 12.999323 5.999318 0.000000 12.999322 6.999318 0.000000 12.999321 7.999319 0.000000 12.999322 9.000000 0.000000 12.999320 10.000001 0.000000 12.999320 11.000681 0.000000 12.999320 12.000682 0.000000 12.999320 13.000682 0.000000 12.999320 14.000682 0.000000 12.999320 15.000682 0.000000 12.999320 16.000683 0.000000 12.999320 17.000683 0.000000 12.999320 18.000683 0.000000 12.999297 19.001025 0.000000 13.999321 -0.001025 0.000000 13.999321 0.999317 0.000000 13.999321 1.999317 0.000000 13.999321 2.999317 0.000000 13.999321 3.999318 0.000000 13.999323 4.999318 0.000000 13.999323 5.999318 0.000000 13.999322 6.999318 0.000000 13.999321 7.999319 0.000000 13.999322 9.000000 0.000000 13.999320 10.000001 0.000000 13.999320 11.000681 0.000000 13.999320 12.000682 0.000000 13.999320 13.000682 0.000000 13.999320 14.000682 0.000000 13.999320 15.000682 0.000000 13.999320 16.000683 0.000000 13.999320 17.000683 0.000000 13.999320 18.000683 0.000000 13.999303 19.001025 0.000000 14.999321 -0.001025 0.000000 14.999321 0.999317 0.000000 14.999321 1.999317 0.000000 14.999321 2.999317 0.000000 14.999322 3.999318 0.000000 14.999324 4.999318 0.000000 14.999324 5.999318 0.000000 14.999322 6.999318 0.000000 14.999321 7.999319 0.000000 14.999322 9.000000 0.000000 14.999321 10.000001 0.000000 14.999321 11.000681 0.000000 14.999321 12.000682 0.000000 14.999321 13.000682 0.000000 14.999321 14.000682 0.000000 14.999321 15.000682 0.000000 14.999321 16.000683 0.000000 14.999321 17.000683 0.000000 14.999321 18.000683 0.000000 14.999315 19.001025 0.000000 15.999321 -0.001025 0.000000 15.999321 0.999317 0.000000 15.999321 1.999317 0.000000 15.999321 2.999317 0.000000 15.999322 3.999318 0.000000 15.999324 4.999318 0.000000 15.999324 5.999318 0.000000 15.999323 6.999318 0.000000 15.999321 7.999319 0.000000 15.999323 9.000000 0.000000 15.999322 10.000001 0.000000 15.999322 11.000681 0.000000 15.999322 12.000682 0.000000 15.999322 13.000682 0.000000 15.999322 14.000682 0.000000 15.999321 15.000682 0.000000 15.999321 16.000683 0.000000 15.999321 17.000683 0.000000 15.999321 18.000683 0.000000 15.999315 19.001025 0.000000 16.999322 -0.001025 0.000000 16.999322 0.999317 0.000000 16.999322 1.999317 0.000000 16.999322 2.999317 0.000000 16.999322 3.999318 0.000000 16.999324 4.999318 0.000000 16.999324 5.999318 0.000000 16.999323 6.999318 0.000000 16.999322 7.999319
[...]
      <PointData Vectors="vector">
        <DataArray type="Float32" Name="Velocity" NumberOfComponents="3" format="ascii">
-0.015000 -0.009000 0.000000 -0.015000 -0.006000 0.000000 -0.015000 -0.006000 0.000000 -0.015000 -0.006000 0.000000 -0.021000 -0.006000 0.000000 -0.021000 -0.006000 0.000000 -0.021000 -0.006000 0.000000 -0.021000 -0.006000 0.000000 -0.015000 -0.006000 0.000000 -0.021000 0.000000 0.000000 -0.015000 0.000000 0.000000 -0.015000 0.006000 0.000000 -0.015000 0.006000 0.000000 -0.015000 0.006000 0.000000 -0.015000 0.006000 0.000000 -0.015000 0.006000 0.000000 -0.015000 0.006000 0.000000 -0.015000 0.006000 0.000000 -0.015000 0.006000 0.000000 -0.015000 0.009000 0.000000 -0.006000 -0.009000 0.000000 -0.006000 -0.006000 0.000000 -0.006000 -0.006000 0.000000 -0.006000 -0.006000 0.000000 -0.012000 -0.006000 0.000000 -0.018000 -0.006000 0.000000 -0.018000 -0.006000 0.000000 -0.012000 -0.006000 0.000000 -0.006000 -0.006000 0.000000 -0.012000 0.000000 0.000000 -0.006000 0.000000 0.000000 -0.006000 0.006000 0.000000 -0.006000 0.006000 0.000000 -0.006000 0.006000 0.000000 -0.006000 0.006000 0.000000 -0.006000 0.006000 0.000000 -0.006000 0.006000 0.000000 -0.006000 0.006000 0.000000 -0.006000 0.006000 0.000000 -0.018000 0.009000 0.000000 -0.006000 -0.009000 0.000000 -0.006000 -0.006000 0.000000 -0.006000 -0.006000 0.000000 -0.006000 -0.006000 0.000000 -0.006000 -0.006000 0.000000 -0.012000 -0.006000 0.000000 -0.012000 -0.006000 0.000000 -0.012000 -0.006000 0.000000 -0.006000 -0.006000 0.000000 -0.012000 0.000000 0.000000 -0.006000 0.000000 0.000000 -0.006000 0.006000 0.000000 -0.006000 0.006000 0.000000 -0.006000 0.006000 0.000000 -0.006000 0.006000 0.000000 -0.006000 0.006000 0.000000 -0.006000 0.006000 0.000000 -0.006000 0.006000 0.000000 -0.006000 0.006000 0.000000 -0.018000 0.009000 0.000000 -0.006000 -0.009000 0.000000 -0.006000 -0.006000 0.000000 -0.006000 -0.006000 0.000000 -0.006000 -0.006000 0.000000 -0.006000 -0.006000 0.000000 -0.012000 -0.006000 0.000000 -0.012000 -0.006000 0.000000 -0.012000 -0.006000 0.000000 -0.006000 -0.006000 0.000000 -0.012000 -0.000000 0.000000 -0.006000 -0.000000 0.000000 -0.006000 0.006000 0.000000 -0.006000 0.006000 0.000000 -0.006000 0.006000 0.000000 -0.006000 0.006000 0.000000 -0.006000 0.006000 0.000000 -0.006000 0.006000 0.000000 -0.006000 0.006000 0.000000 -0.006000 0.006000 0.000000 -0.018000 0.009000 0.000000 -0.006000 -0.009000 0.000000 -0.006000 -0.006000 0.000000 -0.006000 -0.006000 0.000000 -0.006000 -0.006000 0.000000 -0.006000 -0.005999 0.000000 -0.012000 -0.006000 0.000000 -0.012000 -0.005999 0.000000 -0.006000 -0.006000 0.000000 -0.006000 -0.006000 0.000000 -0.006000 0.000000 0.000000 -0.006000 0.000000 0.000000 -0.006000 0.006000 0.000000 -0.006000 0.006000 0.000000 -0.006000 0.006000 0.000000 -0.006000 0.006000 0.000000 -0.006000 0.006000 0.000000 -0.006000 0.006000 0.000000 -0.006000 0.006000 0.000000 -0.006000 0.006000 0.000000 -0.018000 0.009000 0.000000 -0.006000 -0.033000 0.000000 -0.006000 -0.018000 0.000000 -0.006000 -0.018000 0.000000 -0.006000 -0.018000 0.000000 -0.006000 -0.012001 0.000000 -0.012001 -0.012001 0.000000 -0.012000 -0.012001 0.000000 -0.006000 -0.012000 0.000000 -0.006000 -0.006000 0.000000 -0.006000 -0.006000 0.000000 -0.006000 -0.006000 0.000000 -0.006000 -0.000000 0.000000 -0.006000 0.006000 0.000000 -0.006000 0.006000 0.000000 -0.006000 0.006000 0.000000 -0.006000 0.006000 0.000000 -0.006000 0.006000 0.000000 -0.006000 0.006000 0.000000 -0.006000 0.006000 0.000000 -0.012000 0.009000 0.000000 -0.006000 -0.015000 0.000000 -0.006000 -0.012000 0.000000 -0.006000 -0.006000 0.000000 -0.006000 -0.006000 0.000000 -0.006000 -0.005999 0.000000 -0.012000 -0.006000 0.000000 -0.012000 -0.005999 0.000000 -0.006000 -0.000000 0.000000 -0.006000 0.000000 0.000000 -0.006000 0.000000 0.000000 -0.006000 0.000000 0.000000 -0.006000 0.006000 0.000000 -0.006000 0.006000 0.000000 -0.006000 0.006000 0.000000 -0.006000 0.006000 0.000000 -0.006000 0.006000 0.000000 -0.006000 0.006000 0.000000 -0.006000 0.006000 0.000000 -0.006000 0.006000 0.000000 -0.012000 0.009000 0.000000 -0.006000 -0.009000 0.000000 -0.006000 -0.006000 0.000000 -0.006000 -0.006000 0.000000 -0.006000 -0.006000 0.000000 -0.006000 -0.006000 0.000000 -0.006000 -0.006000 0.000000 -0.006000 -0.006000 0.000000 -0.006000 -0.006000 0.000000 -0.006000 -0.006000 0.000000 -0.006000 -0.000000 0.000000 -0.006000 0.000000 0.000000 -0.006000 0.006000 0.000000 -0.006000 0.006000 0.000000 -0.006000 0.006000 0.000000 -0.006000 0.006000 0.000000 -0.006000 0.006000 0.000000 -0.006000 0.006000 0.000000 -0.006000 0.006000 0.000000 -0.006000 0.006000 0.000000 -0.018000 0.009000 0.000000 -0.006000 -0.009000 0.000000 -0.006000 -0.006000 0.000000 -0.006000 -0.006000 0.000000 -0.006000 -0.006000 0.000000 -0.006000 -0.006000 0.000000 -0.006000 -0.006000 0.000000 -0.006000 -0.006000 0.000000 -0.006000 -0.006000 0.000000 -0.006000 -0.006000 0.000000 -0.006000 0.000000 0.000000 -0.006000 0.000000 0.000000 -0.006000 0.006000 0.000000 -0.006000 0.006000 0.000000 -0.006000 0.006000 0.000000 -0.006000 0.006000 0.000000 -0.006000 0.006000 0.000000 -0.006000 0.006000 0.000000 -0.006000 0.006000 0.000000 -0.006000 0.006000 0.000000 -0.012000 0.009000 0.000000 -0.006000 -0.009000 0.000000 -0.006000 -0.006000 0.000000 -0.006000 -0.006000 0.000000 -0.006000 -0.006000 0.000000 -0.006000 -0.006000 0.000000 -0.006000 -0.006000 0.000000 -0.006000 -0.006000 0.000000 -0.006000 -0.006000 0.000000 -0.006000 -0.006000 0.000000 -0.006000 0.000000 0.000000 -0.006000 0.000000 0.000000 -0.006000 0.006000 0.000000 -0.006000 0.006000 0.000000 -0.006000 0.006000 0.000000 -0.006000 0.006000 0.000000 -0.006000 0.006000 0.000000 -0.006000 0.006000 0.000000 -0.006000 0.006000 0.000000 -0.006000 0.006000 0.000000 -0.012000 0.009000 0.000000 -0.006000 -0.009000 0.000000 -0.006000 -0.006000 0.000000 -0.006000 -0.006000 0.000000 -0.006000 -0.006000 0.000000 -0.006000 -0.006000 0.000000 -0.006000 -0.006000 0.000000 -0.006000 -0.006000 0.000000 -0.006000 -0.006000 0.000000 -0.006000 -0.006000 0.000000 -0.006000 -0.000000 0.000000 -0.006000 0.000000 0.000000 -0.006000 0.006000 0.000000 -0.006000 0.006000 0.000000 -0.006000 0.006000 0.000000 -0.006000 0.006000 0.000000 -0.006000 0.006000 0.000000 -0.006000 0.006000 0.000000 -0.006000 0.006000 0.000000 -0.006000 0.006000 0.000000 -0.012000 0.009000 0.000000 -0.006000 -0.009000 0.000000 -0.006000 -0.006000 0.000000 -0.006000 -0.006000 0.000000 -0.006000 -0.006000 0.000000 -0.006000 -0.006000 0.000000 -0.006000 -0.006000 0.000000 -0.006000 -0.006000 0.000000 -0.006000 -0.006000 0.000000 -0.006000 -0.006000 0.000000 -0.006000 0.000000 0.000000 -0.006000 0.000000 0.000000 -0.006000 0.006000 0.000000 -0.006000 0.006000 0.000000 -0.006000 0.006000 0.000000 -0.006000 0.006000 0.000000 -0.006000 0.006000 0.000000 -0.006000 0.006000 0.000000 -0.006000 0.006000 0.000000 -0.006000 0.006000 0.000000 -0.012000 0.009000 0.000000 -0.006000 -0.009000 0.000000 -0.006000 -0.006000 0.000000 -0.006000 -0.006000 0.000000 -0.006000 -0.006000 0.000000 -0.006000 -0.006000 0.000000 -0.006000 -0.006000 0.000000 -0.006000 -0.006000 0.000000 -0.006000 -0.006000 0.000000 -0.006000 -0.006000 0.000000 -0.006000 0.000000 0.000000 -0.006000 0.000000 0.000000 -0.006000 0.006000 0.000000 -0.006000 0.006000 0.000000 -0.006000 0.006000 0.000000 -0.006000 0.006000 0.000000 -0.006000 0.006000 0.000000 -0.006000 0.006000 0.000000 -0.006000 0.006000 0.000000 -0.006000 0.006000 0.000000 -0.012000 0.009000 0.000000 -0.006000 -0.009000 0.000000 -0.006000 -0.006000 0.000000 -0.006000 -0.006000 0.000000 -0.006000 -0.006000 0.000000 -0.006000 -0.006000 0.000000 -0.006000 -0.006000 0.000000 -0.006000 -0.006000 0.000000 -0.006000 -0.006000 0.000000 -0.006000 -0.006000 0.000000 -0.006000 0.000000 0.000000 -0.006000 0.000000 0.000000 -0.006000 0.006000 0.000000 -0.006000 0.006000 0.000000 -0.006000 0.006000 0.000000 -0.006000 0.006000 0.000000 -0.006000 0.006000 0.000000 -0.006000 0.006000 0.000000 -0.006000 0.006000 0.000000 -0.006000 0.006000 0.000000 -0.012000 0.009000 0.000000 -0.006000 -0.009000 0.000000 -0.006000 -0.006000 0.000000 -0.006000 -0.006000 0.000000 -0.006000 -0.006000 0.000000 -0.006000 -0.006000 0.000000 -0.006000 -0.006000 0.000000 -0.006000 -0.006000 0.000000 -0.006000 -0.006000 0.000000 -0.006000 -0.006000 0.000000 -0.006000 0.000000 0.000000 -0.006000 0.000000 0.000000 -0.006000 0.006000 0.000000 -0.006000 0.006000 0.000000 -0.006000 0.006000 0.000000 -0.006000 0.006000 0.000000 -0.006000 0.006000 0.000000 -0.006000 0.006000 0.000000 -0.006000 0.006000 0.000000 -0.006000 0.006000 0.000000 -0.006000 0.009000 0.000000 -0.006000 -0.009000 0.000000 -0.006000 -0.006000 0.000000 -0.006000 -0.006000 0.000000 -0.006000 -0.006000 0.000000 -0.006000 -0.006000 0.000000 -0.006000 -0.006000 0.000000 -0.006000 -0.006000 0.000000 -0.006000 -0.006000 0.000000 -0.006000 -0.006000 0.000000 -0.006000 0.000000 0.000000 -0.006000 0.000000 0.000000 -0.006000 0.006000 0.000000 -0.006000 0.006000 0.000000 -0.006000 0.006000 0.000000 -0.006000 0.006000 0.000000 -0.006000 0.006000 0.000000 -0.006000 0.006000 0.000000 -0.006000 0.006000 0.000000 -0.006000 0.006000 0.000000 -0.006000 0.009000 0.000000 -0.006000 -0.009000 0.000000 -0.006000 -0.006000 0.000000 -0.006000 -0.006000 0.000000 -0.006000 -0.006000 0.000000 -0.006000 -0.006000 0.000000 -0.006000 -0.006000 0.000000 -0.006000 -0.006000 0.000000 -0.006000 -0.006000 0.000000 -0.006000 -0.006000 0.000000 -0.006000 0.000000 0.000000 -0.006000 0.000000 0.000000 -0.006000 0.006000 0.000000 -0.006000 0.006000 0.000000 -0.006000 0.006000 0.000000 -0.006000 0.006000 0.000000 -0.006000 0.006000 0.000000 -0.006000 0.006000 0.000000 -0.006000 0.006000 0.000000 -0.006000 0.006000 0.000000 -0.006000 0.009000 0.000000 -0.006000 -0.009000 0.000000 -0.006000 -0.006000 0.000000 -0.006000 -0.006000 0.000000 -0.006000 -0.006000 0.000000 -0.006000 -0.006000 0.000000 -0.006000 -0.006000 0.000000 -0.006000 -0.006000 0.000000 -0.006000 -0.006000 0.000000 -0.006000 -0.006000 0.000000 -0.006000 0.000000 0.000000 -0.006000 0.000000 0.000000 -0.006000 0.006000 0.000000 -0.006000 0.006000 0.000000 -0.006000 0.006000 0.000000 -0.006000 0.006000 0.000000 -0.006000 0.006000 0.000000 -0.006000 0.006000 0.000000 -0.006000 0.006000 0.000000 -0.006000 0.006000 0.000000 -0.006000 0.009000 0.000000 -0.006000 -0.009000 0.000000 -0.006000 -0.006000 0.000000 -0.006000 -0.006000 0.000000 -0.006000 -0.006000 0.000000 -0.006000 -0.006000 0.000000 -0.006000 -0.006000 0.000000 -0.006000 -0.006000 0.000000 -0.006000 -0.006000 0.000000 -0.006000 -0.006000 0.000000 -0.006000 0.000000 0.000000 -0.006000 0.000000 0.000000 -0.006000 0.006000 0.000000 -0.006000 0.006000 0.000000 -0.006000 0.006000 0.000000 -0.006000 0.006000 0.000000 -0.006000 0.006000 0.000000 -0.006000 0.006000 0.000000 -0.006000 0.006000 0.000000 -0.006000 0.006000 0.000000 -0.006000 0.009000 0.000000 -0.006000 -0.009000 0.000000 -0.006000 -0.006000 0.000000 -0.006000 -0.006000 0.000000 -0.006000 -0.006000 0.000000 -0.006000 -0.006000 0.000000 -0.006000 -0.006000 0.000000 -0.006000 -0.006000 0.000000 -0.006000 -0.006000 0.000000 -0.006000 -0.006000 0.000000 -0.006000 0.000000 0.000000 -0.006000 0.000000 0.000000 -0.006000 0.006000 0.000000 -0.006000 0.006000 0.000000 -0.006000 0.006000 0.000000 -0.006000 0.006000 0.000000 -0.006000 0.006000 0.000000 -0.006000 0.006000 0.000000 -0.006000 0.006000 0.000000 -0.006000 0.006000 0.000000 -0.006000 0.009000 0.000000 -0.006000 -0.009000 0.000000 -0.006000 -0.006000 0.000000 -0.006000 -0.006000 0.000000 -0.006000 -0.006000 0.000000 -0.006000 -0.006000 0.000000 -0.006000 -0.006000 0.000000 -0.006000 -0.006000 0.000000 -0.006000 -0.006000 0.000000 -0.006000 -0.006000 0.000000 -0.006000 0.000000 0.000000 -0.006000 0.000000 0.000000 -0.006000 0.006000 0.000000 -0.006000 0.006000 0.000000 -0.006000 0.006000 0.000000 -0.006000 0.006000 0.000000 -0.006000 0.006000 0.000000 -0.006000 0.006000 0.000000 -0.006000 0.006000 0.000000 -0.006000 0.006000 0.000000 -0.006000 0.009000 0.000000 -0.006000 -0.009000 0.000000 -0.006000 -0.006000 0.000000 -0.006000 -0.006000 0.000000 -0.006000 -0.006000 0.000000 -0.006000 -0.006000 0.000000 -0.006000 -0.006000 0.000000 -0.006000 -0.006000 0.000000 -0.006000 -0.006000 0.000000 -0.006000 -0.006000 0.000000 -0.006000 0.000000 0.000000 -0.006000 0.000000 0.000000 -0.006000 0.006000 0.000000 -0.006000 0.006000 0.000000 -0.006000 0.006000 0.000000 -0.006000 0.006000 0.000000 -0.006000 0.006000 0.000000 -0.006000 0.006000 0.000000 -0.006000 0.006000 0.000000 -0.006000 0.006000 0.000000 -0.006000 0.009000 0.000000 -0.006000 -0.009000 0.000000 -0.006000 -0.006000 0.000000 -0.006000 -0.006000 0.000000 -0.006000 -0.006000 0.000000 -0.006000 -0.006000 0.000000 -0.006000 -0.006000 0.000000 -0.006000 -0.006000 0.000000 -0.006000 -0.006000 0.000000 -0.006000 -0.006000 0.000000 -0.006000 0.000000 0.000000 -0.006000 0.000000 0.000000 -0.006000 0.006000 0.000000 -0.006000 0.006000 0.000000 -0.006000 0.006000 0.000000 -0.006000 0.006000 0.000000 -0.006000 0.006000 0.000000 -0.006000 0.006000 0.000000 -0.006000 0.006000 0.000000 -0.006000 0.006000 0.000000 -0.006000 0.009000 0.000000 -0.006000 -0.009000 0.000000 -0.006000 -0.006000 0.000000 -0.006000 -0.006000 0.000000 -0.006000 -0.006000 0.000000 -0.006000 -0.006000 0.000000 -0.006000 -0.006000 0.000000 -0.006000 -0.006000 0.000000 -0.006000 -0.006000 0.000000 -0.006000 -0.006000 0.000000 -0.006000 0.000000 0.000000 -0.006000 0.000000 0.000000 -0.006000 0.006000 0.000000 -0.006000 0.006000 0.000000 -0.006000 0.006000 0.000000 -0.006000 0.006000 0.000000 -0.006000 0.006000 0.000000 -0.006000 0.006000 0.000000 -0.006000 0.006000 0.000000 -0.006000 0.006000 0.000000 -0.006000 0.009000 0.000000 -0.006000 -0.009000 0.000000 -0.006000 -0.006000 0.000000 -0.006000 -0.006000 0.000000 -0.006000 -0.006000 0.000000 -0.006000 -0.006000 0.000000 -0.006000 -0.006000 0.000000 -0.006000 -0.006000 0.000000 -0.006000 -0.006000 0.000000 -0.006000 -0.006000 0.000000 -0.006000 0.000000 0.000000 -0.006000 0.000000 0.000000 -0.006000 0.006000 0.000000 -0.006000 0.006000 0.000000 -0.006000 0.006000 0.000000 -0.006000 0.006000 0.000000 -0.006000 0.006000 0.000000 -0.006000 0.006000 0.000000 -0.006000 0.006000 0.000000 -0.006000 0.006000 0.000000 -0.006000 0.009000 0.000000 -0.006000 -0.009000 0.000000 -0.006000 -0.006000 0.000000 -0.006000 -0.006000 0.000000 -0.006000 -0.006000 0.000000 -0.006000 -0.006000 0.000000 -0.006000 -0.006000 0.000000 -0.006000 -0.006000 0.000000 -0.006000 -0.006000 0.000000 -0.006000 -0.006000 0.000000 -0.006000 0.000000 0.000000 -0.006000 0.000000 0.000000 -0.006000 0.006000 0.000000 -0.006000 0.006000 0.000000 -0.006000 0.006000 0.000000 -0.006000 0.006000 0.000000 -0.006000 0.006000 0.000000 -0.006000 0.006000 0.000000 -0.006000 0.006000 0.000000 -0.006000 0.006000 0.000000 -0.006000 0.009000 0.000000 -0.006000 -0.009000 0.000000 -0.006000 -0.006000 0.000000 -0.006000 -0.006000 0.000000 -0.006000 -0.006000 0.000000 -0.006000 -0.006000 0.000000 -0.006000 -0.006000 0.000000 -0.006000 -0.006000 0.000000 -0.006000 -0.006000 0.000000 -0.006000 -0.006000 0.000000 -0.006000 0.000000 0.000000 -0.006000 0.000000 0.000000 -0.006000 0.006000 0.000000 -0.006000 0.006000 0.000000 -0.006000 0.006000 0.000000 -0.006000 0.006000 0.000000 -0.006000 0.006000 0.000000 -0.006000 0.006000 0.000000 -0.006000 0.006000 0.000000 -0.006000 0.006000 0.000000 0.000000 0.009000 0.000000 -0.006000 -0.009000 0.000000 -0.006000 -0.006000 0.000000 -0.006000 -0.006000 0.000000 -0.006000 -0.006000 0.000000 -0.006000 -0.006000 0.000000 -0.006000 -0.006000 0.000000 -0.006000 -0.006000 0.000000 -0.006000 -0.006000 0.000000 -0.006000 -0.006000 0.000000 -0.006000 0.000000 0.000000 -0.006000 0.000000 0.000000 -0.006000 0.006000 0.000000 -0.006000 0.006000 0.000000 -0.006000 0.006000 0.000000 -0.006000 0.006000 0.000000 -0.006000 0.006000 0.000000 -0.006000 0.006000 0.000000 -0.006000 0.006000 0.000000 -0.006000 0.006000 0.000000 -0.000000 0.009000 0.000000 -0.006000 -0.009000 0.000000 -0.006000 -0.006000 0.000000 -0.006000 -0.006000 0.000000 -0.006000 -0.006000 0.000000 -0.006000 -0.006000 0.000000 -0.006000 -0.006000 0.000000 -0.006000 -0.006000 0.000000 -0.006000 -0.006000 0.000000 -0.006000 -0.006000 0.000000 -0.006000 0.000000 0.000000 -0.006000 0.000000 0.000000 -0.006000 0.006000 0.000000 -0.006000 0.006000 0.000000 -0.006000 0.006000 0.000000 -0.006000 0.006000 0.000000 -0.006000 0.006000 0.000000 -0.006000 0.006000 0.000000 -0.006000 0.006000 0.000000 -0.006000 0.006000 0.000000 -0.000000 0.009000 0.000000 -0.006000 -0.009000 0.000000 -0.006000 -0.006000 0.000000 -0.006000 -0.006000 0.000000 -0.006000 -0.006000 0.000000 -0.006000 -0.006000 0.000000 -0.006000 -0.006000 0.000000 -0.006000 -0.006000 0.000000 -0.006000 -0.006000 0.000000 -0.006000 -0.006000 0.000000 -0.006000 0.000000 0.000000 -0.006000 0.000000 0.000000 -0.006000 0.006000 0.000000 -0.006000 0.006000 0.000000 -0.006000 0.006000 0.000000 -0.006000 0.006000 0.000000 -0.006000 0.006000 0.000000 -0.006000 0.006000 0.000000 -0.006000 0.006000 0.000000 -0.006000 0.006000 0.000000 0.000000 0.009155 0.000000 -0.006000 -0.009000 0.000000 -0.006000 -0.006000 0.000000 -0.006000 -0.006000 0.000000 -0.006000 -0.006000 0.000000 -0.006000 -0.006000 0.000000 -0.006000 -0.006000 0.000000 -0.006000 -0.006000 0.000000 -0.006000 -0.006000 0.000000 -0.006000 -0.006000 0.000000 -0.006000 -0.168000 0.000000 -0.006000 -0.165030 0.000000 -0.006000 -0.119973 0.000000 -0.006000 -0.126000 0.000000 -0.006000 -0.131998 0.000000 -0.006000 -0.132001 0.000000 -0.006000 -0.137999 0.000000 -0.006000 -0.138001 0.000000 -0.006000 -0.144002 0.000000 -0.006012 -0.152364 0.000000 0.001493 -2.245090 0.000000 -0.006000 -0.009000 0.000000 -0.006000 -0.006000 0.000000 -0.006000 -0.006000 0.000000 -0.006000 -0.006000 0.000000 -0.006000 -0.006000 0.000000 -0.006000 -0.006000 0.000000 -0.006000 -0.006000 0.000000 -0.006000 -0.006000 0.000000 -0.006000 -0.006000 0.000000 -0.006000 -0.147000 0.000000 -0.006000 -0.156026 0.000000 -0.006000 -0.119976 0.000000 -0.006000 -0.126000 0.000000 -0.006000 -0.131998 0.000000 -0.006000 -0.132001 0.000000 -0.006000 -0.137999 0.000000 -0.006000 -0.138001 0.000000 -0.006000 -0.144002 0.000000 -0.006017 -0.152269 0.000000 0.000145 -2.207939 0.000000 -0.006000 -0.009000 0.000000 -0.006000 -0.006000 0.000000 -0.006000 -0.006000 0.000000 -0.006000 -0.006000 0.000000 -0.006000 -0.006000 0.000000 -0.006000 -0.006000 0.000000 -0.006000 -0.006000 0.000000 -0.006000 -0.006000 0.000000 -0.006000 -0.006000 0.000000 -0.006000 -0.153000 0.000000 -0.006000 -0.156027 0.000000 -0.006000 -0.119975 0.000000 -0.006000 -0.126000 0.000000 -0.006000 -0.131998 0.000000 -0.006000 -0.132001 0.000000 -0.006000 -0.137999 0.000000 -0.006000 -0.138001 0.000000 -0.006000 -0.144002 0.000000 -0.006018 -0.152255 0.000000 0.000148 -2.137756 0.000000 -0.006000 -0.009000 0.000000 -0.006000 -0.006000 0.000000 -0.006000 -0.006000 0.000000 -0.006000 -0.006000 0.000000 -0.006000 -0.006000 0.000000 0.000000 -0.006000 0.000000 0.000000 -0.006000 0.000000 -0.006000 -0.006000 0.000000 -0.006000 -0.006000 0.000000 -0.006000 -0.147000 0.000000 -0.006000 -0.156026 0.000000 -0.006000 -0.119976 0.000000 -0.006000 -0.126000 0.000000 -0.006000 -0.131998 0.000000 -0.006000 -0.132001 0.000000 -0.006000 -0.137999 0.000000 -0.006000 -0.138001 0.000000 -0.006000 -0.144002 0.000000 -0.006019 -0.152269 0.000000 0.006154 -2.207945 0.000000 -0.006000 -0.009000 0.000000 -0.006000 -0.006000 0.000000 -0.006000 -0.006000 0.000000 -0.006000 -0.006000 0.000000 -0.006000 -0.006000 0.000000 0.000000 -0.006000 0.000000 0.000000 -0.006000 0.000000 -0.006000 -0.006000 0.000000 -0.006000 -0.006000 0.000000 -0.006000 -0.147000 0.000000 -0.006000 -0.156026 0.000000 -0.006000 -0.119976 0.000000 -0.006000 -0.126000 0.000000 -0.006000 -0.131998 0.000000 -0.006000 -0.132001 0.000000 -0.006000 -0.137999 0.000000 -0.006000 -0.138001 0.0000