<VTKFile type="UnstructuredGrid" version="0.1" byte_order="LittleEndian">
  <UnstructuredGrid>
    <Piece NumberOfPoints="2000" NumberOfCells="0">
      <Points>
        <DataArray name="Position" type="Float32" NumberOfComponents="3" format="ascii">
-0.000174 -0.000107 0.000000 -0.000174 0.999929 0.000000 -0.000174 1.999929 0.000000 -0.000174 2.999929 0.000000 -0.000174 3.999930 0.000000 -0.000212 4.999930 0.000000 -0.000197 5.999930 0.000000 -0.000233 6.999930 0.000000 -0.000165 7.999931 0.000000 -0.000232 9.000000 0.000000 -0.000161 10.000001 0.000000 -0.000160 11.000069 0.000000 -0.000162 12.000070 0.000000 -0.000162 13.000070 0.000000 -0.000162 14.000070 0.000000 -0.000156 15.000070 0.000000 -0.000156 16.000071 0.000000 -0.000156 17.000071 0.000000 -0.000156 18.000071 0.000000 -0.000156 19.000107 0.000000 0.999926 -0.000107 0.000000 0.999926 0.999929 0.000000 0.999926 1.999929 0.000000 0.999926 2.999929 0.000000 0.999874 3.999930 0.000000 0.999830 4.999930 0.000000 0.999848 5.999930 0.000000 0.999863 6.999930 0.000000 0.999921 7.999931 0.000000 0.999864 9.000000 0.000000 0.999919 10.000001 0.000000 0.999919 11.000069 0.000000 0.999920 12.000070 0.000000 0.999920 13.000070 0.000000 0.999920 14.000070 0.000000 0.999917 15.000070 0.000000 0.999917 16.000071 0.000000 0.999917 17.000071 0.000000 0.999917 18.000071 0.000000 0.999917 19.000107 0.000000 1.999929 -0.000107 0.000000 1.999929 0.999929 0.000000 1.999929 1.999929 0.000000 1.999929 2.999929 0.000000 1.999925 3.999930 0.000000 1.999855 4.999930 0.000000 1.999866 5.999930 0.000000 1.999867 6.999930 0.000000 1.999929 7.999931 0.000000 1.999867 9.000000 0.000000 1.999929 10.000001 0.000000 1.999929 11.000069 0.000000 1.999929 12.000070 0.000000 1.999929 13.000070 0.000000 1.999929 14.000070 0.000000 1.999929 15.000070 0.000000 1.999929 16.000071 0.000000 1.999929 17.000071 0.000000 1.999929 18.000071 0.000000 1.999929 19.000107 0.000000 2.999929 -0.000107 0.000000 2.999929 0.999929 0.000000 2.999929 1.999929 0.000000 2.999929 2.999929 0.000000 2.999928 3.999930 0.000000 2.999863 4.999930 0.000000 2.999870 5.999930 0.000000 2.999871 6.999930 0.000000 2.999929 7.999931 0.000000 2.999871 9.000000 0.000000 2.999929 10.000001 0.000000 2.999929 11.000069 0.000000 2.999929 12.000070 0.000000 2.999929 13.000070 0.000000 2.999929 14.000070 0.000000 2.999929 15.000070 0.000000 2.999929 16.000071 0.000000 2.999929 17.000071 0.000000 2.999929 18.000071 0.000000 2.999929 19.000107 0.000000 3.999929 -0.000107 0.000000 3.999929 0.999929 0.000000 3.999929 1.999929 0.000000 3.999929 2.999929 0.000000 3.999928 3.999930 0.000000 3.999865 4.999930 0.000000 3.999899 5.999930 0.000000 3.999923 6.999930 0.000000 3.999929 7.999931 0.000000 3.999923 9.000000 0.000000 3.999929 10.000001 0.000000 3.999929 11.000069 0.000000 3.999929 12.000070 0.000000 3.999929 13.000070 0.000000 3.999929 14.000070 0.000000 3.999929 15.000070 0.000000 3.999929 16.000071 0.000000 3.999929 17.000071 0.000000 3.999929 18.000071 0.000000 3.999929 19.000107 0.000000 4.999930 -0.000296 0.000000 4.999930 0.999776 0.000000 4.999930 1.999797 0.000000 4.999930 2.999803 0.000000 4.999929 3.999849 0.000000 4.999866 4.999861 0.000000 4.999901 5.999870 0.000000 4.999928 6.999882 0.000000 4.999929 7.999930 0.000000 4.999928 8.999930 0.000000 4.999929 9.999930 0.000000 4.999929 11.000001 0.000000 4.999930 12.000070 0.000000 4.999930 13.000070 0.000000 4.999930 14.000070 0.000000 4.999930 15.000070 0.000000 4.999930 16.000071 0.000000 4.999930 17.000071 0.000000 4.999930 18.000071 0.000000 4.999930 19.000107 0.000000 5.999931 -0.000167 0.000000 5.999931 0.999898 0.000000 5.999931 1.999922 0.000000 5.999931 2.999929 0.000000 5.999931 3.999929 0.000000 5.999872 4.999929 0.000000 5.999906 5.999930 0.000000 5.999928 6.999961 0.000000 5.999930 7.999999 0.000000 5.999928 9.000000 0.000000 5.999930 10.000001 0.000000 5.999929 11.000069 0.000000 5.999930 12.000070 0.000000 5.999930 13.000070 0.000000 5.999930 14.000070 0.000000 5.999930 15.000070 0.000000 5.999930 16.000071 0.000000 5.999930 17.000071 0.000000 5.999930 18.000071 0.000000 5.999930 19.000107 0.000000 6.999931 -0.000107 0.000000 6.999931 0.999929 0.000000 6.999931 1.999929 0.000000 6.999931 2.999929 0.000000 6.999931 3.999930 0.000000 6.999921 4.999930 0.000000 6.999921 5.999930 0.000000 6.999929 6.999931 0.000000 6.999930 7.999931 0.000000 6.999929 8.999999 0.000000 6.999930 10.000001 0.000000 6.999930 11.000069 0.000000 6.999930 12.000070 0.000000 6.999930 13.000070 0.000000 6.999930 14.000070 0.000000 6.999930 15.000070 0.000000 6.999930 16.000071 0.000000 6.999930 17.000071 0.000000 6.999930 18.000071 0.000000 6.999930 19.000107 0.000000 7.999931 -0.000107 0.000000 7.999931 0.999929 0.000000 7.999931 1.999929 0.000000 7.999931 2.999929 0.000000 7.999932 3.999930 0.000000 7.999927 4.999930 0.000000 7.999927 5.999930 0.000000 7.999930 6.999930 0.000000 7.999931 7.999931 0.000000 7.999930 8.999999 0.000000 7.999930 10.000001 0.000000 7.999930 11.000069 0.000000 7.999930 12.000070 0.000000 7.999930 13.000070 0.000000 7.999930 14.000070 0.000000 7.999930 15.000070 0.000000 7.999930 16.000071 0.000000 7.999930 17.000071 0.000000 7.999930 18.000071 0.000000 7.999930 19.000107 0.000000 8.999931 -0.000107 0.000000 8.999931 0.999929 0.000000 8.999931 1.999929 0.000000 8.999931 2.999929 0.000000 8.999932 3.999930 0.000000 8.999928 4.999930 0.000000 8.999929 5.999930 0.000000 8.999931 6.999930 0.000000 8.999931 7.999931 0.000000 8.999931 9.000000 0.000000 8.999931 10.000001 0.000000 8.999931 11.000069 0.000000 8.999931 12.000070 0.000000 8.999931 13.000070 0.000000 8.999931 14.000070 0.000000 8.999931 15.000070 0.000000 8.999931 16.000071 0.000000 8.999931 17.000071 0.000000 8.999931 18.000071 0.000000 8.999931 19.000107 0.000000 9.999932 -0.000107 0.000000 9.999932 0.999929 0.000000 9.999932 1.999929 0.000000 9.999932 2.999929 0.000000 9.999932 3.999930 0.000000 9.999930 4.999930 0.000000 9.999930 5.999930 0.000000 9.999932 6.999930 0.000000 9.999931 7.999931 0.000000 9.999931 9.000000 0.000000 9.999931 10.000001 0.000000 9.999931 11.000069 0.000000 9.999931 12.000070 0.000000 9.999931 13.000070 0.000000 9.999931 14.000070 0.000000 9.999931 15.000070 0.000000 9.999931 16.000071 0.000000 9.999931 17.000071 0.000000 9.999931 18.000071 0.000000 9.999931 19.000107 0.000000 10.999932 -0.000107 0.000000 10.999932 0.999929 0.000000 10.999932 1.999929 0.000000 10.999932 2.999929 0.000000 10.999933 3.999930 0.000000 10.999935 4.999930 0.000000 10.999935 5.999930 0.000000 10.999933 6.999930 0.000000 10.999932 7.999931 0.000000 10.999933 9.000000 0.000000 10.999931 10.000001 0.000000 10.999931 11.000069 0.000000 10.999931 12.000070 0.000000 10.999931 13.000070 0.000000 10.999931 14.000070 0.000000 10.999931 15.000070 0.000000 10.999931 16.000071 0.000000 10.999931 17.000071 0.000000 10.999931 18.000071 0.000000 10.999931 19.000107 0.000000 11.999932 -0.000107 0.000000 11.999932 0.999929 0.000000 11.999932 1.999929 0.000000 11.999932 2.999929 0.000000 11.999933 3.999930 0.000000 11.999935 4.999930 0.000000 11.999935 5.999930 0.000000 11.999933 6.999930 0.000000 11.999932 7.999931 0.000000 11.999933 9.000000 0.000000 11.999932 10.000001 0.000000 11.999932 11.000069 0.000000 11.999932 12.000070 0.000000 11.999932 13.000070 0.000000 11.999932 14.000070 0.000000 11.999932 15.000070 0.000000 11.999932 16.000071 0.000000 11.999932 17.000071 0.000000 11.999932 18.000071 0.000000 11.999932 19.000107 0.000000 12.999933 -0.000107 0.000000 12.999933 0.999929 0.000000 12.999933 1.999929 0.000000 12.999933 2.999929 0.000000 12.999933 3.999930 0.000000 12.999935 4.999930 0.000000 12.999935 5.999930 0.000000 12.999934 6.999930 0.000000 12.999933 7.999931 0.000000 12.999934 9.000000 0.000000 12.999932 10.000001 0.000000 12.999932 11.000069 0.000000 12.999932 12.000070 0.000000 12.999932 13.000070 0.000000 12.999932 14.000070 0.000000 12.999932 15.000070 0.000000 12.999932 16.000071 0.000000 12.999932 17.000071 0.000000 12.999932 18.000071 0.000000 12.999932 19.000107 0.000000 13.999933 -0.000107 0.000000 13.999933 0.999929 0.000000 13.999933 1.999929 0.000000 13.999933 2.999929 0.000000 13.999933 3.999930 0.000000 13.999935 4.999930 0.000000 13.999935 5.999930 0.000000 13.999934 6.999930 0.000000 13.999933 7.999931 0.000000 13.999934 9.000000 0.000000 13.999932 10.000001 0.000000 13.999932 11.000069 0.000000 13.999932 12.000070 0.000000 13.999932 13.000070 0.000000 13.999932 14.000070 0.000000 13.999932 15.000070 0.000000 13.999932 16.000071 0.000000 13.999932 17.000071 0.000000 13.999932 18.000071 0.000000 13.999932 19.000107 0.000000 14.999933 -0.000107 0.000000 14.999933 0.999929 0.000000 14.999933 1.999929 0.000000 14.999933 2.999929 0.000000 14.999934 3.999930 0.000000 14.999936 4.999930 0.000000 14.999936 5.999930 0.000000 14.999934 6.999930 0.000000 14.999933 7.999931 0.000000 14.999934 9.000000 0.000000 14.999933 10.000001 0.000000 14.999933 11.000069 0.000000 14.999933 12.000070 0.000000 14.999933 13.000070 0.000000 14.999933 14.000070 0.000000 14.999933 15.000070 0.000000 14.999933 16.000071 0.000000 14.999933 17.000071 0.000000 14.999933 18.000071 0.000000 14.999933 19.000107 0.000000 15.999933 -0.000107 0.000000 15.999933 0.999929 0.000000 15.999933 1.999929 0.000000 15.999933 2.999929 0.000000 15.999934 3.999930 0.000000 15.999936 4.999930 0.000000 15.999936 5.999930 0.000000 15.999935 6.999930 0.000000 15.999933 7.999931 0.000000 15.999935 9.000000 0.000000 15.999934 10.000001 0.000000 15.999934 11.000069 0.000000 15.999934 12.000070 0.000000 15.999934 13.000070 0.000000 15.999934 14.000070 0.000000 15.999933 15.000070 0.000000 15.999933 16.000071 0.000000 15.999933 17.000071 0.000000 15.999933 18.000071 0.000000 15.999933 19.000107 0.000000 16.999934 -0.000107 0.000000 16.999934 0.999929 0.000000 16.999934 1.999929 0.000000 16.999934 2.999929 0.000000 16.999934 3.999930 0.000000 16.999936 4.999930 0.000000 16.999936 5.999930 0.000000 16.999935 6.999930 0.000000 16.999934 7.999931
[...]
      <PointData Vectors="vector">
        <DataArray type="Float32" Name="Velocity" NumberOfComponents="3" format="ascii">
-0.015000 -0.009000 0.000000 -0.015000 -0.006000 0.000000 -0.015000 -0.006000 0.000000 -0.015000 -0.006000 0.000000 -0.015000 -0.006000 0.000000 -0.021000 -0.006000 0.000000 -0.021000 -0.006000 0.000000 -0.021000 -0.006000 0.000000 -0.015000 -0.006000 0.000000 -0.021000 0.000000 0.000000 -0.015000 0.000000 0.000000 -0.015000 0.006000 0.000000 -0.015000 0.006000 0.000000 -0.015000 0.006000 0.000000 -0.015000 0.006000 0.000000 -0.015000 0.006000 0.000000 -0.015000 0.006000 0.000000 -0.015000 0.006000 0.000000 -0.015000 0.006000 0.000000 -0.015000 0.009000 0.000000 -0.006000 -0.009000 0.000000 -0.006000 -0.006000 0.000000 -0.006000 -0.006000 0.000000 -0.006000 -0.006000 0.000000 -0.018000 -0.006000 0.000000 -0.018000 -0.006000 0.000000 -0.012000 -0.006000 0.000000 -0.012000 -0.006000 0.000000 -0.006000 -0.006000 0.000000 -0.012000 0.000000 0.000000 -0.006000 0.000000 0.000000 -0.006000 0.006000 0.000000 -0.006000 0.006000 0.000000 -0.006000 0.006000 0.000000 -0.006000 0.006000 0.000000 -0.006000 0.006000 0.000000 -0.006000 0.006000 0.000000 -0.006000 0.006000 0.000000 -0.006000 0.006000 0.000000 -0.006000 0.009000 0.000000 -0.006000 -0.009000 0.000000 -0.006000 -0.006000 0.000000 -0.006000 -0.006000 0.000000 -0.006000 -0.006000 0.000000 -0.006000 -0.006000 0.000000 -0.012000 -0.006000 0.000000 -0.012000 -0.006000 0.000000 -0.012000 -0.006000 0.000000 -0.006000 -0.006000 0.000000 -0.012000 0.000000 0.000000 -0.006000 0.000000 0.000000 -0.006000 0.006000 0.000000 -0.006000 0.006000 0.000000 -0.006000 0.006000 0.000000 -0.006000 0.006000 0.000000 -0.006000 0.006000 0.000000 -0.006000 0.006000 0.000000 -0.006000 0.006000 0.000000 -0.006000 0.006000 0.000000 -0.006000 0.009000 0.000000 -0.006000 -0.009000 0.000000 -0.006000 -0.006000 0.000000 -0.006000 -0.006000 0.000000 -0.006000 -0.006000 0.000000 -0.006000 -0.006000 0.000000 -0.012000 -0.006000 0.000000 -0.012000 -0.006000 0.000000 -0.012000 -0.006000 0.000000 -0.006000 -0.006000 0.000000 -0.012000 -0.000000 0.000000 -0.006000 -0.000000 0.000000 -0.006000 0.006000 0.000000 -0.006000 0.006000 0.000000 -0.006000 0.006000 0.000000 -0.006000 0.006000 0.000000 -0.006000 0.006000 0.000000 -0.006000 0.006000 0.000000 -0.006000 0.006000 0.000000 -0.006000 0.006000 0.000000 -0.006000 0.009000 0.000000 -0.006000 -0.009000 0.000000 -0.006000 -0.006000 0.000000 -0.006000 -0.006000 0.000000 -0.006000 -0.006000 0.000000 -0.006000 -0.005999 0.000000 -0.012000 -0.006000 0.000000 -0.018000 -0.005999 0.000000 -0.006000 -0.006000 0.000000 -0.006000 -0.006000 0.000000 -0.006000 0.000000 0.000000 -0.006000 0.000000 0.000000 -0.006000 0.006000 0.000000 -0.006000 0.006000 0.000000 -0.006000 0.006000 0.000000 -0.006000 0.006000 0.000000 -0.006000 0.006000 0.000000 -0.006000 0.006000 0.000000 -0.006000 0.006000 0.000000 -0.006000 0.006000 0.000000 -0.006000 0.009000 0.000000 -0.006000 -0.033000 0.000000 -0.006000 -0.018000 0.000000 -0.006000 -0.018000 0.000000 -0.006000 -0.018000 0.000000 -0.006000 -0.012001 0.000000 -0.012001 -0.012001 0.000000 -0.012000 -0.012001 0.000000 -0.006000 -0.012000 0.000000 -0.006000 -0.006000 0.000000 -0.006000 -0.006000 0.000000 -0.006000 -0.006000 0.000000 -0.006000 -0.000000 0.000000 -0.006000 0.006000 0.000000 -0.006000 0.006000 0.000000 -0.006000 0.006000 0.000000 -0.006000 0.006000 0.000000 -0.006000 0.006000 0.000000 -0.006000 0.006000 0.000000 -0.006000 0.006000 0.000000 -0.006000 0.009000 0.000000 -0.006000 -0.015000 0.000000 -0.006000 -0.012000 0.000000 -0.006000 -0.006000 0.000000 -0.006000 -0.006000 0.000000 -0.006000 -0.005999 0.000000 -0.012000 -0.006000 0.000000 -0.012000 -0.005999 0.000000 -0.006000 -0.000000 0.000000 -0.006000 0.000000 0.000000 -0.006000 0.000000 0.000000 -0.006000 0.000000 0.000000 -0.006000 0.006000 0.000000 -0.006000 0.006000 0.000000 -0.006000 0.006000 0.000000 -0.006000 0.006000 0.000000 -0.006000 0.006000 0.000000 -0.006000 0.006000 0.000000 -0.006000 0.006000 0.000000 -0.006000 0.006000 0.000000 -0.006000 0.009000 0.000000 -0.006000 -0.009000 0.000000 -0.006000 -0.006000 0.000000 -0.006000 -0.006000 0.000000 -0.006000 -0.006000 0.000000 -0.006000 -0.006000 0.000000 -0.006000 -0.006000 0.000000 -0.006000 -0.006000 0.000000 -0.006000 -0.006000 0.000000 -0.006000 -0.006000 0.000000 -0.006000 -0.000000 0.000000 -0.006000 0.000000 0.000000 -0.006000 0.006000 0.000000 -0.006000 0.006000 0.000000 -0.006000 0.006000 0.000000 -0.006000 0.006000 0.000000 -0.006000 0.006000 0.000000 -0.006000 0.006000 0.000000 -0.006000 0.006000 0.000000 -0.006000 0.006000 0.000000 -0.006000 0.009000 0.000000 -0.006000 -0.009000 0.000000 -0.006000 -0.006000 0.000000 -0.006000 -0.006000 0.000000 -0.006000 -0.006000 0.000000 -0.006000 -0.006000 0.000000 -0.006000 -0.006000 0.000000 -0.006000 -0.006000 0.000000 -0.006000 -0.006000 0.000000 -0.006000 -0.006000 0.000000 -0.006000 0.000000 0.000000 -0.006000 0.000000 0.000000 -0.006000 0.006000 0.000000 -0.006000 0.006000 0.000000 -0.006000 0.006000 0.000000 -0.006000 0.006000 0.000000 -0.006000 0.006000 0.000000 -0.006000 0.006000 0.000000 -0.006000 0.006000 0.000000 -0.006000 0.006000 0.000000 -0.006000 0.009000 0.000000 -0.006000 -0.009000 0.000000 -0.006000 -0.006000 0.000000 -0.006000 -0.006000 0.000000 -0.006000 -0.006000 0.000000 -0.006000 -0.006000 0.000000 -0.006000 -0.006000 0.000000 -0.006000 -0.006000 0.000000 -0.006000 -0.006000 0.000000 -0.006000 -0.006000 0.000000 -0.006000 0.000000 0.000000 -0.006000 0.000000 0.000000 -0.006000 0.006000 0.000000 -0.006000 0.006000 0.000000 -0.006000 0.006000 0.000000 -0.006000 0.006000 0.000000 -0.006000 0.006000 0.000000 -0.006000 0.006000 0.000000 -0.006000 0.006000 0.000000 -0.006000 0.006000 0.000000 -0.006000 0.009000 0.000000 -0.006000 -0.009000 0.000000 -0.006000 -0.006000 0.000000 -0.006000 -0.006000 0.000000 -0.006000 -0.006000 0.000000 -0.006000 -0.006000 0.000000 -0.006000 -0.006000 0.000000 -0.006000 -0.006000 0.000000 -0.006000 -0.006000 0.000000 -0.006000 -0.006000 0.000000 -0.006000 -0.000000 0.000000 -0.006000 0.000000 0.000000 -0.006000 0.006000 0.000000 -0.006000 0.006000 0.000000 -0.006000 0.006000 0.000000 -0.006000 0.006000 0.000000 -0.006000 0.006000 0.000000 -0.006000 0.006000 0.000000 -0.006000 0.006000 0.000000 -0.006000 0.006000 0.000000 -0.006000 0.009000 0.000000 -0.006000 -0.009000 0.000000 -0.006000 -0.006000 0.000000 -0.006000 -0.006000 0.000000 -0.006000 -0.006000 0.000000 -0.006000 -0.006000 0.000000 -0.006000 -0.006000 0.000000 -0.006000 -0.006000 0.000000 -0.006000 -0.006000 0.000000 -0.006000 -0.006000 0.000000 -0.006000 0.000000 0.000000 -0.006000 0.000000 0.000000 -0.006000 0.006000 0.000000 -0.006000 0.006000 0.000000 -0.006000 0.006000 0.000000 -0.006000 0.006000 0.000000 -0.006000 0.006000 0.000000 -0.006000 0.006000 0.000000 -0.006000 0.006000 0.000000 -0.006000 0.006000 0.000000 -0.006000 0.009000 0.000000 -0.006000 -0.009000 0.000000 -0.006000 -0.006000 0.000000 -0.006000 -0.006000 0.000000 -0.006000 -0.006000 0.000000 -0.006000 -0.006000 0.000000 -0.006000 -0.006000 0.000000 -0.006000 -0.006000 0.000000 -0.006000 -0.006000 0.000000 -0.006000 -0.006000 0.000000 -0.006000 0.000000 0.000000 -0.006000 0.000000 0.000000 -0.006000 0.006000 0.000000 -0.006000 0.006000 0.000000 -0.006000 0.006000 0.000000 -0.006000 0.006000 0.000000 -0.006000 0.006000 0.000000 -0.006000 0.006000 0.000000 -0.006000 0.006000 0.000000 -0.006000 0.006000 0.000000 -0.006000 0.009000 0.000000 -0.006000 -0.009000 0.000000 -0.006000 -0.006000 0.000000 -0.006000 -0.006000 0.000000 -0.006000 -0.006000 0.000000 -0.006000 -0.006000 0.000000 -0.006000 -0.006000 0.000000 -0.006000 -0.006000 0.000000 -0.006000 -0.006000 0.000000 -0.006000 -0.006000 0.000000 -0.006000 0.000000 0.000000 -0.006000 0.000000 0.000000 -0.006000 0.006000 0.000000 -0.006000 0.006000 0.000000 -0.006000 0.006000 0.000000 -0.006000 0.006000 0.000000 -0.006000 0.006000 0.000000 -0.006000 0.006000 0.000000 -0.006000 0.006000 0.000000 -0.006000 0.006000 0.000000 -0.006000 0.009000 0.000000 -0.006000 -0.009000 0.000000 -0.006000 -0.006000 0.000000 -0.006000 -0.006000 0.000000 -0.006000 -0.006000 0.000000 -0.006000 -0.006000 0.000000 -0.006000 -0.006000 0.000000 -0.006000 -0.006000 0.000000 -0.006000 -0.006000 0.000000 -0.006000 -0.006000 0.000000 -0.006000 0.000000 0.000000 -0.006000 0.000000 0.000000 -0.006000 0.006000 0.000000 -0.006000 0.006000 0.000000 -0.006000 0.006000 0.000000 -0.006000 0.006000 0.000000 -0.006000 0.006000 0.000000 -0.006000 0.006000 0.000000 -0.006000 0.006000 0.000000 -0.006000 0.006000 0.000000 -0.006000 0.009000 0.000000 -0.006000 -0.009000 0.000000 -0.006000 -0.006000 0.000000 -0.006000 -0.006000 0.000000 -0.006000 -0.006000 0.000000 -0.006000 -0.006000 0.000000 -0.006000 -0.006000 0.000000 -0.006000 -0.006000 0.000000 -0.006000 -0.006000 0.000000 -0.006000 -0.006000 0.000000 -0.006000 0.000000 0.000000 -0.006000 0.000000 0.000000 -0.006000 0.006000 0.000000 -0.006000 0.006000 0.000000 -0.006000 0.006000 0.000000 -0.006000 0.006000 0.000000 -0.006000 0.006000 0.000000 -0.006000 0.006000 0.000000 -0.006000 0.006000 0.000000 -0.006000 0.006000 0.000000 -0.006000 0.009000 0.000000 -0.006000 -0.009000 0.000000 -0.006000 -0.006000 0.000000 -0.006000 -0.006000 0.000000 -0.006000 -0.006000 0.000000 -0.006000 -0.006000 0.000000 -0.006000 -0.006000 0.000000 -0.006000 -0.006000 0.000000 -0.006000 -0.006000 0.000000 -0.006000 -0.006000 0.000000 -0.006000 0.000000 0.000000 -0.006000 0.000000 0.000000 -0.006000 0.006000 0.000000 -0.006000 0.006000 0.000000 -0.006000 0.006000 0.000000 -0.006000 0.006000 0.000000 -0.006000 0.006000 0.000000 -0.006000 0.006000 0.000000 -0.006000 0.006000 0.000000 -0.006000 0.006000 0.000000 -0.006000 0.009000 0.000000 -0.006000 -0.009000 0.000000 -0.006000 -0.006000 0.000000 -0.006000 -0.006000 0.000000 -0.006000 -0.006000 0.000000 -0.006000 -0.006000 0.000000 -0.006000 -0.006000 0.000000 -0.006000 -0.006000 0.000000 -0.006000 -0.006000 0.000000 -0.006000 -0.006000 0.000000 -0.006000 0.000000 0.000000 -0.006000 0.000000 0.000000 -0.006000 0.006000 0.000000 -0.006000 0.006000 0.000000 -0.006000 0.006000 0.000000 -0.006000 0.006000 0.000000 -0.006000 0.006000 0.000000 -0.006000 0.006000 0.000000 -0.006000 0.006000 0.000000 -0.006000 0.006000 0.000000 -0.006000 0.009000 0.000000 -0.006000 -0.009000 0.000000 -0.006000 -0.006000 0.000000 -0.006000 -0.006000 0.000000 -0.006000 -0.006000 0.000000 -0.006000 -0.006000 0.000000 -0.006000 -0.006000 0.000000 -0.006000 -0.006000 0.000000 -0.006000 -0.006000 0.000000 -0.006000 -0.006000 0.000000 -0.006000 0.000000 0.000000 -0.006000 0.000000 0.000000 -0.006000 0.006000 0.000000 -0.006000 0.006000 0.000000 -0.006000 0.006000 0.000000 -0.006000 0.006000 0.000000 -0.006000 0.006000 0.000000 -0.006000 0.006000 0.000000 -0.006000 0.006000 0.000000 -0.006000 0.006000 0.000000 -0.006000 0.009000 0.000000 -0.006000 -0.009000 0.000000 -0.006000 -0.006000 0.000000 -0.006000 -0.006000 0.000000 -0.006000 -0.006000 0.000000 -0.006000 -0.006000 0.000000 -0.006000 -0.006000 0.000000 -0.006000 -0.006000 0.000000 -0.006000 -0.006000 0.000000 -0.006000 -0.006000 0.000000 -0.006000 0.000000 0.000000 -0.006000 0.000000 0.000000 -0.006000 0.006000 0.000000 -0.006000 0.006000 0.000000 -0.006000 0.006000 0.000000 -0.006000 0.006000 0.000000 -0.006000 0.006000 0.000000 -0.006000 0.006000 0.000000 -0.006000 0.006000 0.000000 -0.006000 0.006000 0.000000 -0.006000 0.009000 0.000000 -0.006000 -0.009000 0.000000 -0.006000 -0.006000 0.000000 -0.006000 -0.006000 0.000000 -0.006000 -0.006000 0.000000 -0.006000 -0.006000 0.000000 -0.006000 -0.006000 0.000000 -0.006000 -0.006000 0.000000 -0.006000 -0.006000 0.000000 -0.006000 -0.006000 0.000000 -0.006000 0.000000 0.000000 -0.006000 0.000000 0.000000 -0.006000 0.006000 0.000000 -0.006000 0.006000 0.000000 -0.006000 0.006000 0.000000 -0.006000 0.006000 0.000000 -0.006000 0.006000 0.000000 -0.006000 0.006000 0.000000 -0.006000 0.006000 0.000000 -0.006000 0.006000 0.000000 -0.006000 0.009000 0.000000 -0.006000 -0.009000 0.000000 -0.006000 -0.006000 0.000000 -0.006000 -0.006000 0.000000 -0.006000 -0.006000 0.000000 -0.006000 -0.006000 0.000000 -0.006000 -0.006000 0.000000 -0.006000 -0.006000 0.000000 -0.006000 -0.006000 0.000000 -0.006000 -0.006000 0.000000 -0.006000 0.000000 0.000000 -0.006000 0.000000 0.000000 -0.006000 0.006000 0.000000 -0.006000 0.006000 0.000000 -0.006000 0.006000 0.000000 -0.006000 0.006000 0.000000 -0.006000 0.006000 0.000000 -0.006000 0.006000 0.000000 -0.006000 0.006000 0.000000 -0.006000 0.006000 0.000000 -0.006000 0.009000 0.000000 -0.006000 -0.009000 0.000000 -0.006000 -0.006000 0.000000 -0.006000 -0.006000 0.000000 -0.006000 -0.006000 0.000000 -0.006000 -0.006000 0.000000 -0.006000 -0.006000 0.000000 -0.006000 -0.006000 0.000000 -0.006000 -0.006000 0.000000 -0.006000 -0.006000 0.000000 -0.006000 0.000000 0.000000 -0.006000 0.000000 0.000000 -0.006000 0.006000 0.000000 -0.006000 0.006000 0.000000 -0.006000 0.006000 0.000000 -0.006000 0.006000 0.000000 -0.006000 0.006000 0.000000 -0.006000 0.006000 0.000000 -0.006000 0.006000 0.000000 -0.006000 0.006000 0.000000 -0.006000 0.009000 0.000000 -0.006000 -0.009000 0.000000 -0.006000 -0.006000 0.000000 -0.006000 -0.006000 0.000000 -0.006000 -0.006000 0.000000 -0.006000 -0.006000 0.000000 -0.006000 -0.006000 0.000000 -0.006000 -0.006000 0.000000 -0.006000 -0.006000 0.000000 -0.006000 -0.006000 0.000000 -0.006000 0.000000 0.000000 -0.006000 0.000000 0.000000 -0.006000 0.006000 0.000000 -0.006000 0.006000 0.000000 -0.006000 0.006000 0.000000 -0.006000 0.006000 0.000000 -0.006000 0.006000 0.000000 -0.006000 0.006000 0.000000 -0.006000 0.006000 0.000000 -0.006000 0.006000 0.000000 -0.006000 0.009000 0.000000 -0.006000 -0.009000 0.000000 -0.006000 -0.006000 0.000000 -0.006000 -0.006000 0.000000 -0.006000 -0.006000 0.000000 -0.006000 -0.006000 0.000000 -0.006000 -0.006000 0.000000 -0.006000 -0.006000 0.000000 -0.006000 -0.006000 0.000000 -0.006000 -0.006000 0.000000 -0.006000 0.000000 0.000000 -0.006000 0.000000 0.000000 -0.006000 0.006000 0.000000 -0.006000 0.006000 0.000000 -0.006000 0.006000 0.000000 -0.006000 0.006000 0.000000 -0.006000 0.006000 0.000000 -0.006000 0.006000 0.000000 -0.006000 0.006000 0.000000 -0.006000 0.006000 0.000000 -0.006000 0.009000 0.000000 -0.006000 -0.009000 0.000000 -0.006000 -0.006000 0.000000 -0.006000 -0.006000 0.000000 -0.006000 -0.006000 0.000000 -0.006000 -0.006000 0.000000 -0.006000 -0.006000 0.000000 -0.006000 -0.006000 0.000000 -0.006000 -0.006000 0.000000 -0.006000 -0.006000 0.000000 -0.006000 0.000000 0.000000 -0.006000 0.000000 0.000000 -0.006000 0.006000 0.000000 -0.006000 0.006000 0.000000 -0.006000 0.006000 0.000000 -0.006000 0.006000 0.000000 -0.006000 0.006000 0.000000 -0.006000 0.006000 0.000000 -0.006000 0.006000 0.000000 -0.006000 0.006000 0.000000 -0.006000 0.009000 0.000000 -0.006000 -0.009000 0.000000 -0.006000 -0.006000 0.000000 -0.006000 -0.006000 0.000000 -0.006000 -0.006000 0.000000 -0.006000 -0.006000 0.000000 -0.006000 -0.006000 0.000000 -0.006000 -0.006000 0.000000 -0.006000 -0.006000 0.000000 -0.006000 -0.006000 0.000000 -0.006000 0.000000 0.000000 -0.006000 0.000000 0.000000 -0.006000 0.006000 0.000000 -0.006000 0.006000 0.000000 -0.006000 0.006000 0.000000 -0.006000 0.006000 0.000000 -0.006000 0.006000 0.000000 -0.006000 0.006000 0.000000 -0.006000 0.006000 0.000000 -0.006000 0.006000 0.000000 -0.006000 0.009000 0.000000 -0.006000 -0.009000 0.000000 -0.006000 -0.006000 0.000000 -0.006000 -0.006000 0.000000 -0.006000 -0.006000 0.000000 -0.006000 -0.006000 0.000000 -0.006000 -0.006000 0.000000 -0.006000 -0.006000 0.000000 -0.006000 -0.006000 0.000000 -0.006000 -0.006000 0.000000 -0.006000 0.000000 0.000000 -0.006000 0.000000 0.000000 -0.006000 0.006000 0.000000 -0.006000 0.006000 0.000000 -0.006000 0.006000 0.000000 -0.006000 0.006000 0.000000 -0.006000 0.006000 0.000000 -0.006000 0.006000 0.000000 -0.006000 0.006000 0.000000 -0.006000 0.006000 0.000000 -0.006000 0.009000 0.000000 -0.006000 -0.009000 0.000000 -0.006000 -0.006000 0.000000 -0.006000 -0.006000 0.000000 -0.006000 -0.006000 0.000000 -0.006000 -0.006000 0.000000 -0.006000 -0.006000 0.000000 -0.006000 -0.006000 0.000000 -0.006000 -0.006000 0.000000 -0.006000 -0.006000 0.000000 -0.006000 0.000000 0.000000 -0.006000 0.000000 0.000000 -0.006000 0.006000 0.000000 -0.006000 0.006000 0.000000 -0.006000 0.006000 0.000000 -0.006000 0.006000 0.000000 -0.006000 0.006000 0.000000 -0.006000 0.006000 0.000000 -0.006000 0.006000 0.000000 -0.006000 0.006000 0.000000 -0.006000 0.009000 0.000000 -0.006000 -0.009000 0.000000 -0.006000 -0.006000 0.000000 -0.006000 -0.006000 0.000000 -0.006000 -0.006000 0.000000 -0.006000 -0.006000 0.000000 -0.006000 -0.006000 0.000000 -0.006000 -0.006000 0.000000 -0.006000 -0.006000 0.000000 -0.006000 -0.006000 0.000000 -0.006000 0.000000 0.000000 -0.006000 0.000000 0.000000 -0.006000 0.006000 0.000000 -0.006000 0.006000 0.000000 -0.006000 0.006000 0.000000 -0.006000 0.006000 0.000000 -0.006000 0.006000 0.000000 -0.006000 0.006000 0.000000 -0.006000 0.006000 0.000000 -0.006000 0.006000 0.000000 -0.006000 0.009000 0.000000 -0.006000 -0.009000 0.000000 -0.006000 -0.006000 0.000000 -0.006000 -0.006000 0.000000 -0.006000 -0.006000 0.000000 -0.006000 -0.006000 0.000000 -0.006000 -0.006000 0.000000 -0.006000 -0.006000 0.000000 -0.006000 -0.006000 0.000000 -0.006000 -0.006000 0.000000 -0.006000 0.000000 0.000000 -0.006000 0.000000 0.000000 -0.006000 0.006000 0.000000 -0.006000 0.006000 0.000000 -0.006000 0.006000 0.000000 -0.006000 0.006000 0.000000 -0.006000 0.006000 0.000000 -0.006000 0.006000 0.000000 -0.006000 0.006000 0.000000 -0.006000 0.006000 0.000000 -0.006000 0.009000 0.000000 -0.006000 -0.009000 0.000000 -0.006000 -0.006000 0.000000 -0.006000 -0.006000 0.000000 -0.006000 -0.006000 0.000000 -0.006000 -0.006000 0.000000 -0.006000 -0.006000 0.000000 -0.006000 -0.006000 0.000000 -0.006000 -0.006000 0.000000 -0.006000 -0.006000 0.000000 -0.006000 0.000000 0.000000 -0.006000 0.000000 0.000000 -0.006000 0.006000 0.000000 -0.006000 0.006000 0.000000 -0.006000 0.006000 0.000000 -0.006000 0.006000 0.000000 -0.006000 0.006000 0.000000 -0.006000 0.006000 0.000000 -0.006000 0.006000 0.000000 -0.006000 0.006000 0.000000 -0.006000 0.009000 0.000000 -0.006000 -0.009000 0.000000 -0.006000 -0.006000 0.000000 -0.006000 -0.006000 0.000000 -0.006000 -0.006000 0.000000 -0.006000 -0.006000 0.000000 -0.006000 -0.006000 0.000000 -0.006000 -0.006000 0.000000 -0.006000 -0.006000 0.000000 -0.006000 -0.006000 0.000000 -0.006000 0.000000 0.000000 -0.006000 0.000000 0.000000 -0.006000 0.006000 0.000000 -0.006000 0.006000 0.000000 -0.006000 0.006000 0.000000 -0.006000 0.006000 0.000000 -0.006000 0.006000 0.000000 -0.006000 0.006000 0.000000 -0.006000 0.006000 0.000000 -0.006000 0.006000 0.000000 -0.006000 0.009000 0.000000 -0.006000 -0.009000 0.000000 -0.006000 -0.006000 0.000000 -0.006000 -0.006000 0.000000 -0.006000 -0.006000 0.000000 -0.006000 -0.006000 0.000000 0.000000 -0.006000 0.000000 0.000000 -0.006000 0.000000 -0.006000 -0.006000 0.000000 -0.006000 -0.006000 0.000000 -0.006000 0.000000 0.000000 -0.006000 0.000000 0.000000 -0.006000 0.006000 0.000000 -0.006000 0.006000 0.000000 -0.006000 0.006000 0.000000 -0.006000 0.006000 0.000000 -0.006000 0.006000 0.000000 -0.006000 0.006000 0.000000 -0.006000 0.006000 0.000000 -0.006000 0.006000 0.000000 -0.006000 0.009000 0.000000 -0.006000 -0.009000 0.000000 -0.006000 -0.006000 0.000000 -0.006000 -0.006000 0.000000 -0.006000 -0.006000 0.000000 -0.006000 -0.006000 0.000000 0.000000 -0.006000 0.000000 0.000000 -0.006000 0.000000 -0.006000 -0.006000 0.000000 -0.006000 -0.006000 0.000000 -0.006000 0.000000 0.000000 -0.006000 0.000000 0.000000 -0.006000 0.006000 0.000000 -0.006000 0.006000 0.000000 -0.006000 0.006000 0.000000 -0.006000 0.006000 0.000000 -0.006000 0.006000 0.000000 -0.006000 0.006000 0.000000 -0.006000 0.006000 0.000000 -0.006000 0.006