<VTKFile type="UnstructuredGrid" version="0.1" byte_order="LittleEndian">
  <UnstructuredGrid>
    <Piece NumberOfPoints="2000" NumberOfCells="0">
      <Points>
        <DataArray name="Position" type="Float32" NumberOfComponents="3" format="ascii">
-0.010016 -0.005602 0.000000 -0.017379 0.996266 0.000000 -0.009587 1.996266 0.000000 -0.033320 2.996266 0.000000 -0.055890 3.996266 0.000000 -0.013032 4.996267 0.000000 -0.083768 5.996267 0.000000 -0.013053 6.996267 0.000000 -0.100274 7.996268 0.000000 -0.013052 9.000000 0.000000 -0.010267 10.000001 0.000000 -0.118930 11.003732 0.000000 -0.009319 12.003733 0.000000 -0.009319 13.003733 0.000000 -0.093624 14.003733 0.000000 -0.011294 15.003733 0.000000 -0.009313 16.003734 0.000000 -0.195009 17.003734 0.000000 -0.089015 18.003734 0.000000 -0.248955 19.005602 0.000000 0.990531 -0.005602 0.000000 0.982623 0.995752 0.000000 0.990796 1.996266 0.000000 0.970208 2.996322 0.000000 0.948153 3.996733 0.000000 0.988841 4.996267 0.000000 0.918231 5.996267 0.000000 0.990259 6.996267 0.000000 0.899993 7.996232 0.000000 0.990510 9.000000 0.000000 0.990233 10.000001 0.000000 0.883341 11.003732 0.000000 0.992522 12.003733 0.000000 0.993822 13.003733 0.000000 0.906499 14.003733 0.000000 0.988994 15.003734 0.000000 0.993568 16.003734 0.000000 0.805761 17.003734 0.000000 0.914132 18.003734 0.000000 0.755777 19.005601 0.000000 1.990544 -0.005602 0.000000 1.983327 0.995260 0.000000 1.993966 1.996266 0.000000 1.970878 2.996283 0.000000 1.953961 3.996271 0.000000 1.990710 4.996266 0.000000 1.918290 5.996239 0.000000 1.990289 6.996267 0.000000 1.900294 7.997080 0.000000 1.990531 9.000000 0.000000 1.990237 10.000001 0.000000 1.883504 11.003771 0.000000 1.992544 12.003733 0.000000 1.993843 13.003733 0.000000 1.907203 14.003731 0.000000 1.989282 15.003733 0.000000 1.993594 16.003734 0.000000 1.805804 17.003734 0.000000 1.916349 18.003743 0.000000 1.756999 19.005639 0.000000 2.990602 -0.005837 0.000000 2.984192 0.994536 0.000000 2.995086 1.994725 0.000000 2.971544 2.995464 0.000000 2.955962 3.995726 0.000000 2.990723 4.996904 0.000000 2.918660 5.996640 0.000000 2.992538 6.997812 0.000000 2.900704 7.998060 0.000000 2.990735 9.000000 0.000000 2.990257 10.000001 0.000000 2.887563 11.003318 0.000000 2.992546 12.003734 0.000000 2.993849 13.003743 0.000000 2.907395 14.003750 0.000000 2.989441 15.003734 0.000000 2.993594 16.004850 0.000000 2.805905 17.003733 0.000000 2.916792 18.003420 0.000000 2.758007 19.004896 0.000000 3.991144 -0.007498 0.000000 3.984784 0.993502 0.000000 3.995093 1.993957 0.000000 3.972047 2.993842 0.000000 3.957610 3.995894 0.000000 3.992138 4.998874 0.000000 3.918914 5.999996 0.000000 3.992554 7.000609 0.000000 3.900759 8.002098 0.000000 3.992537 9.000012 0.000000 3.990258 10.000019 0.000000 3.888626 11.000752 0.000000 3.994393 12.003733 0.000000 3.995043 13.003733 0.000000 3.907404 14.003731 0.000000 3.989254 15.003734 0.000000 3.994916 16.003734 0.000000 3.805915 17.003736 0.000000 3.918985 18.005341 0.000000 3.758824 19.009105 0.000000 4.991092 -0.020720 0.000000 4.984821 0.983612 0.000000 4.996039 1.988346 0.000000 4.973939 2.988521 0.000000 4.957524 3.990743 0.000000 4.992531 4.990541 0.000000 4.919224 5.988520 0.000000 4.992749 6.989967 0.000000 4.900809 7.987510 0.000000 4.992539 8.996241 0.000000 4.990275 9.999214 0.000000 4.891168 10.997889 0.000000 4.994393 12.003733 0.000000 4.995043 13.003733 0.000000 4.909293 14.003733 0.000000 4.989235 15.003733 0.000000 4.994916 16.003734 0.000000 4.806811 17.003732 0.000000 4.921186 18.002814 0.000000 4.761375 19.003829 0.000000 5.991066 -0.009077 0.000000 5.984840 0.993023 0.000000 5.996269 1.993359 0.000000 5.974512 2.993882 0.000000 5.958066 3.997567 0.000000 5.992978 4.997099 0.000000 5.919299 6.000391 0.000000 5.992741 7.000473 0.000000 5.900726 8.002941 0.000000 5.992544 9.000986 0.000000 5.991153 10.001032 0.000000 5.891664 11.003982 0.000000 5.994401 12.003733 0.000000 5.995051 13.003733 0.000000 5.910301 14.003726 0.000000 5.989228 15.003734 0.000000 5.994927 16.003734 0.000000 5.807637 17.003737 0.000000 5.921547 18.005807 0.000000 5.761837 19.009196 0.000000 6.991663 -0.007775 0.000000 6.985224 0.993354 0.000000 6.996269 1.994260 0.000000 6.975646 2.994841 0.000000 6.958545 3.994951 0.000000 6.993887 4.997718 0.000000 6.919317 5.998645 0.000000 6.994672 6.999125 0.000000 6.901053 7.999575 0.000000 6.995541 8.999999 0.000000 6.993236 10.000001 0.000000 6.891577 11.002974 0.000000 6.994416 12.003733 0.000000 6.995068 13.003752 0.000000 6.911038 14.003776 0.000000 6.989213 15.003734 0.000000 6.994936 16.004785 0.000000 6.809593 17.003732 0.000000 6.921742 18.003118 0.000000 6.762047 19.004579 0.000000 7.991671 -0.005536 0.000000 7.985228 0.994625 0.000000 7.996269 1.995344 0.000000 7.975653 2.995590 0.000000 7.958579 3.995847 0.000000 7.994355 4.996911 0.000000 7.919395 5.996314 0.000000 7.994994 6.997173 0.000000 7.901037 7.997637 0.000000 7.996257 8.999999 0.000000 7.993244 10.000001 0.000000 7.891635 11.003827 0.000000 7.996255 12.003733 0.000000 7.996255 13.003733 0.000000 7.911143 14.003725 0.000000 7.989218 15.003733 0.000000 7.996252 16.003734 0.000000 7.809878 17.003734 0.000000 7.922641 18.003769 0.000000 7.763709 19.005706 0.000000 8.992305 -0.005602 0.000000 8.985379 0.995611 0.000000 8.996270 1.996267 0.000000 8.975887 2.996304 0.000000 8.958624 3.996296 0.000000 8.996259 4.997011 0.000000 8.919437 5.996250 0.000000 8.995904 6.996267 0.000000 8.901033 7.995455 0.000000 8.996262 9.000000 0.000000 8.993249 10.000001 0.000000 8.891578 11.003730 0.000000 8.996266 12.003733 0.000000 8.996264 13.003733 0.000000 8.911389 14.003733 0.000000 8.989251 15.003734 0.000000 8.996264 16.003734 0.000000 8.810342 17.003734 0.000000 8.923875 18.003734 0.000000 8.763945 19.005596 0.000000 9.992926 -0.005602 0.000000 9.985490 0.996272 0.000000 9.996270 1.996266 0.000000 9.978674 2.996265 0.000000 9.958370 3.996265 0.000000 9.996264 4.996267 0.000000 9.919429 5.996267 0.000000 9.996234 6.996267 0.000000 9.901038 7.996314 0.000000 9.996264 9.000000 0.000000 9.993251 10.000001 0.000000 9.891666 11.003732 0.000000 9.996266 12.003733 0.000000 9.996266 13.003733 0.000000 9.912416 14.003733 0.000000 9.989315 15.003733 0.000000 9.996266 16.003734 0.000000 9.810722 17.003734 0.000000 9.924873 18.003734 0.000000 9.763970 19.005602 0.000000 10.992956 -0.005602 0.000000 10.986114 0.996266 0.000000 10.996271 1.996266 0.000000 10.979800 2.996266 0.000000 10.958365 3.996267 0.000000 10.996272 4.996267 0.000000 10.919475 5.996267 0.000000 10.996237 6.996267 0.000000 10.901097 7.996265 0.000000 10.996270 9.000000 0.000000 10.993251 10.000001 0.000000 10.891593 11.003732 0.000000 10.996267 12.003733 0.000000 10.996267 13.003733 0.000000 10.913853 14.003733 0.000000 10.989301 15.003733 0.000000 10.996267 16.003734 0.000000 10.810779 17.003734 0.000000 10.926294 18.003734 0.000000 10.766880 19.005602 0.000000 11.992958 -0.005602 0.000000 11.986791 0.996266 0.000000 11.996271 1.996266 0.000000 11.980662 2.996266 0.000000 11.958823 3.996266 0.000000 11.996272 4.996267 0.000000 11.919487 5.996267 0.000000 11.996237 6.996267 0.000000 11.901118 7.996268 0.000000 11.996270 9.000000 0.000000 11.993253 10.000001 0.000000 11.891512 11.003732 0.000000 11.996267 12.003733 0.000000 11.996267 13.003733 0.000000 11.914864 14.003733 0.000000 11.989285 15.003733 0.000000 11.996267 16.003734 0.000000 11.811559 17.003734 0.000000 11.926565 18.003734 0.000000 11.768070 19.005602 0.000000 12.993570 -0.005602 0.000000 12.987420 0.996266 0.000000 12.996271 1.996266 0.000000 12.980831 2.996266 0.000000 12.958660 3.996267 0.000000 12.996272 4.996267 0.000000 12.919515 5.996267 0.000000 12.996238 6.996267 0.000000 12.901117 7.996268 0.000000 12.996271 9.000000 0.000000 12.996253 10.000001 0.000000 12.891639 11.003732 0.000000 12.996267 12.003733 0.000000 12.996267 13.003733 0.000000 12.916544 14.003733 0.000000 12.989272 15.003733 0.000000 12.996267 16.003734 0.000000 12.811695 17.003734 0.000000 12.928158 18.003734 0.000000 12.768200 19.005602 0.000000 13.993571 -0.005602 0.000000 13.987441 0.996266 0.000000 13.996272 1.996266 0.000000 13.981332 2.996266 0.000000 13.958834 3.996267 0.000000 13.996272 4.996267 0.000000 13.919465 5.996267 0.000000 13.996238 6.996267 0.000000 13.901096 7.996268 0.000000 13.996271 9.000000 0.000000 13.996263 10.000001 0.000000 13.891530 11.003732 0.000000 13.996267 12.003733 0.000000 13.996267 13.003733 0.000000 13.917191 14.003733 0.000000 13.989327 15.003733 0.000000 13.996267 16.003734 0.000000 13.811857 17.003734 0.000000 13.928510 18.003734 0.000000 13.768534 19.005602 0.000000 14.993572 -0.005602 0.000000 14.988048 0.996266 0.000000 14.996272 1.996266 0.000000 14.981986 2.996266 0.000000 14.958356 3.996267 0.000000 14.996273 4.996267 0.000000 14.919563 5.996267 0.000000 14.996238 6.996267 0.000000 14.901158 7.996268 0.000000 14.996271 9.000000 0.000000 14.996263 10.000001 0.000000 14.891562 11.003732 0.000000 14.996271 12.003733 0.000000 14.996271 13.003733 0.000000 14.917845 14.003733 0.000000 14.989406 15.003733 0.000000 14.996268 16.003734 0.000000 14.811905 17.003734 0.000000 14.928774 18.003734 0.000000 14.768999 19.005602 0.000000 15.993581 -0.005602 0.000000 15.988060 0.996266 0.000000 15.996272 1.996266 0.000000 15.982163 2.996266 0.000000 15.958521 3.996267 0.000000 15.996273 4.996267 0.000000 15.919530 5.996267 0.000000 15.996239 6.996267 0.000000 15.901267 7.996268 0.000000 15.996272 9.000000 0.000000 15.996266 10.000001 0.000000 15.891562 11.003732 0.000000 15.996273 12.003733 0.000000 15.996273 13.003733 0.000000 15.918306 14.003733 0.000000 15.989379 15.003733 0.000000 15.996268 16.003734 0.000000 15.812715 17.003734 0.000000 15.933051 18.003734 0.000000 15.769042 19.005602 0.000000 16.994198 -0.005602 0.000000 16.988072 0.996266 0.000000 16.996273 1.996266 0.000000 16.982481 2.996266 0.000000 16.958557 3.996267 0.000000 16.996273 4.996267 0.000000 16.919539 5.996267 0.000000 16.996239 6.996267 0.000000 16.901294 7.996268
[...]
      <PointData Vectors="vector">
        <DataArray type="Float32" Name="Velocity" NumberOfComponents="3" format="ascii">
-0.063000 -0.009000 0.000000 -0.129001 -0.005989 0.000000 -0.021000 -0.006000 0.000000 -0.297007 -0.006006 0.000000 -0.453076 -0.006002 0.000000 -0.021000 -0.006000 0.000000 -0.771095 -0.006000 0.000000 -0.021000 -0.006000 0.000000 -0.873017 -0.005994 0.000000 -0.021000 0.000000 0.000000 -0.021000 0.000000 0.000000 -0.801022 0.006000 0.000000 -0.015000 0.006000 0.000000 -0.015000 0.006000 0.000000 -0.543012 0.006000 0.000000 -0.291022 0.006000 0.000000 -0.015000 0.006000 0.000000 -1.137022 0.006000 0.000000 -0.843012 0.006000 0.000000 -1.293025 0.009000 0.000000 -0.060000 -0.009000 0.000000 -0.131992 -0.011910 0.000000 -0.012004 -0.006000 0.000000 -0.257938 -0.005981 0.000000 -0.396080 0.000002 0.000000 -0.018000 -0.006000 0.000000 -0.774047 -0.005991 0.000000 -0.018000 -0.006000 0.000000 -0.978011 -0.006678 0.000000 -0.018000 0.000000 0.000000 -0.018000 0.000000 0.000000 -0.786002 0.005996 0.000000 -0.018000 0.006000 0.000000 -0.018000 0.006000 0.000000 -0.546013 0.006000 0.000000 -0.258003 0.006000 0.000000 -0.018000 0.006000 0.000000 -1.134005 0.006000 0.000000 -0.780010 0.005999 0.000000 -1.224033 0.008992 0.000000 -0.060000 -0.008991 0.000000 -0.113998 -0.011764 0.000000 -0.017979 -0.005995 0.000000 -0.246042 -0.005717 0.000000 -0.641989 -0.005815 0.000000 -0.017997 -0.006000 0.000000 -0.894027 -0.006517 0.000000 -0.018000 -0.006000 0.000000 -0.816021 -0.001910 0.000000 -0.018000 0.000000 0.000000 -0.018000 0.000000 0.000000 -0.786051 0.006405 0.000000 -0.018000 0.006000 0.000000 -0.018000 0.006000 0.000000 -0.533988 0.005987 0.000000 -0.264004 0.006000 0.000000 -0.018000 0.006000 0.000000 -1.122029 0.006001 0.000000 -0.708014 0.006125 0.000000 -1.182034 0.009370 0.000000 -0.017975 -0.014761 0.000000 -0.108026 -0.005986 0.000000 -0.011971 -0.011985 0.000000 -0.240041 -0.010687 0.000000 -0.564157 -0.011135 0.000000 -0.017983 -0.000009 0.000000 -0.894039 -0.006744 0.000000 -0.011998 -0.000007 0.000000 -0.888000 -0.003564 0.000000 -0.018000 -0.000000 0.000000 -0.018000 -0.000000 0.000000 -0.780006 0.005341 0.000000 -0.017990 0.006000 0.000000 -0.017966 0.006000 0.000000 -0.534064 0.006029 0.000000 -0.351009 0.006001 0.000000 -0.018003 0.012000 0.000000 -1.128005 0.005995 0.000000 -0.726030 0.002679 0.000000 -1.182035 0.003508 0.000000 -0.053987 -0.012912 0.000000 -0.108017 -0.014181 0.000000 -0.011952 -0.005912 0.000000 -0.233994 -0.010259 0.000000 -0.365884 0.000600 0.000000 -0.018013 0.000080 0.000000 -0.743921 0.021760 0.000000 -0.011909 0.012027 0.000000 -0.923953 0.037473 0.000000 -0.012000 0.000032 0.000000 -0.018000 0.000039 0.000000 -0.720025 -0.000937 0.000000 -0.012000 0.006000 0.000000 -0.012000 0.006000 0.000000 -0.534000 0.005984 0.000000 -0.209981 0.006000 0.000000 -0.012000 0.006000 0.000000 -1.134022 0.006013 0.000000 -0.666008 0.013392 0.000000 -1.164098 0.027073 0.000000 -0.054000 -0.035604 0.000000 -0.096000 -0.034486 0.000000 -0.011550 -0.042127 0.000000 -0.204400 -0.021756 0.000000 -0.656971 -0.030137 0.000000 -0.011593 -0.030129 0.000000 -0.745033 -0.070039 0.000000 -0.015724 -0.036103 0.000000 -0.876046 -0.084422 0.000000 -0.012000 -0.006065 0.000000 -0.018000 -0.000093 0.000000 -0.684198 -0.016477 0.000000 -0.012000 0.006000 0.000000 -0.012000 0.006000 0.000000 -0.510033 0.005999 0.000000 -0.257979 0.005999 0.000000 -0.012000 0.006000 0.000000 -1.097993 0.005982 0.000000 -0.624034 -0.003568 0.000000 -1.146157 -0.005129 0.000000 -0.054014 -0.012687 0.000000 -0.102016 -0.007854 0.000000 -0.006000 -0.011880 0.000000 -0.192085 -0.009763 0.000000 -0.510278 0.016294 0.000000 -0.006012 -0.005929 0.000000 -0.816344 0.024652 0.000000 -0.011822 0.012110 0.000000 -0.828349 0.043311 0.000000 -0.011978 0.000033 0.000000 -0.012011 0.006054 0.000000 -0.873675 0.015390 0.000000 -0.011999 0.006000 0.000000 -0.012000 0.006000 0.000000 -0.509978 0.005946 0.000000 -0.245994 0.006000 0.000000 -0.012000 0.006000 0.000000 -1.086024 0.006022 0.000000 -0.636022 0.017270 0.000000 -1.127940 0.029569 0.000000 -0.047999 -0.015054 0.000000 -0.096000 -0.012449 0.000000 -0.006000 -0.011999 0.000000 -0.185964 -0.011482 0.000000 -0.575875 -0.015304 0.000000 -0.018018 0.000000 0.000000 -0.750089 0.004338 0.000000 -0.018000 0.000018 0.000000 -0.806892 0.002146 0.000000 -0.018000 -0.000000 0.000000 -0.012000 -0.000000 0.000000 -0.740292 0.001071 0.000000 -0.011973 0.006000 0.000000 -0.011959 0.006000 0.000000 -0.498091 0.006117 0.000000 -0.201009 0.006002 0.000000 -0.012002 0.012000 0.000000 -1.056042 0.005986 0.000000 -0.624130 -0.000361 0.000000 -1.122030 0.000640 0.000000 -0.048001 -0.008386 0.000000 -0.096000 -0.011813 0.000000 -0.006000 -0.011975 0.000000 -0.192030 -0.011005 0.000000 -0.558190 -0.009288 0.000000 -0.005901 -0.000010 0.000000 -0.852238 -0.009065 0.000000 -0.017968 -0.000031 0.000000 -0.936343 -0.001539 0.000000 -0.006000 0.000000 0.000000 -0.012000 0.000000 0.000000 -0.897208 0.007291 0.000000 -0.006000 0.006000 0.000000 -0.006000 0.006000 0.000000 -0.498010 0.005935 0.000000 -0.221948 0.005999 0.000000 -0.006000 0.006000 0.000000 -1.056029 0.006003 0.000000 -0.636033 0.006476 0.000000 -1.092134 0.010034 0.000000 -0.042000 -0.009000 0.000000 -0.090001 -0.011146 0.000000 -0.005996 -0.005992 0.000000 -0.186013 -0.005586 0.000000 -0.662982 -0.005025 0.000000 -0.005982 -0.000000 0.000000 -0.827740 -0.006410 0.000000 -0.006000 -0.006005 0.000000 -0.890531 -0.016709 0.000000 -0.006000 0.000000 0.000000 -0.012000 0.000000 0.000000 -0.693177 0.005920 0.000000 -0.006000 0.006000 0.000000 -0.006000 0.006000 0.000000 -0.498011 0.006002 0.000000 -0.246033 0.006000 0.000000 -0.006000 0.006000 0.000000 -1.037991 0.006000 0.000000 -0.590554 0.005987 0.000000 -1.110076 0.008940 0.000000 -0.036001 -0.009000 0.000000 -0.095999 -0.005934 0.000000 -0.006000 -0.006000 0.000000 -0.143956 -0.006009 0.000000 -0.528140 -0.006057 0.000000 -0.006000 -0.006000 0.000000 -0.854967 -0.005991 0.000000 -0.042000 -0.006000 0.000000 -0.900017 -0.005016 0.000000 -0.006000 -0.000000 0.000000 -0.012000 0.000000 0.000000 -0.830805 0.006002 0.000000 -0.006000 0.006000 0.000000 -0.006000 0.006000 0.000000 -0.486010 0.006000 0.000000 -0.285021 0.006000 0.000000 -0.006000 0.006000 0.000000 -1.026026 0.006000 0.000000 -0.544674 0.006000 0.000000 -1.097825 0.009002 0.000000 -0.035999 -0.009000 0.000000 -0.090000 -0.006000 0.000000 -0.006000 -0.006000 0.000000 -0.137930 -0.006000 0.000000 -0.489190 -0.005997 0.000000 -0.006000 -0.006000 0.000000 -0.924367 -0.006000 0.000000 -0.030000 -0.006000 0.000000 -0.816394 -0.006086 0.000000 -0.006000 0.000000 0.000000 -0.012000 0.000000 0.000000 -0.906064 0.006000 0.000000 -0.006000 0.006000 0.000000 -0.006000 0.006000 0.000000 -0.473979 0.006000 0.000000 -0.287992 0.006000 0.000000 -0.006000 0.006000 0.000000 -1.026020 0.006000 0.000000 -0.564517 0.006000 0.000000 -1.068091 0.009000 0.000000 -0.036001 -0.009000 0.000000 -0.084000 -0.006000 0.000000 -0.006000 -0.006000 0.000000 -0.132018 -0.006000 0.000000 -0.405446 -0.006000 0.000000 -0.006000 -0.006000 0.000000 -0.846057 -0.006000 0.000000 -0.030000 -0.006000 0.000000 -0.836796 -0.005996 0.000000 -0.006000 0.000000 0.000000 -0.012000 0.000000 0.000000 -0.645470 0.006000 0.000000 -0.006000 0.006000 0.000000 -0.006000 0.006000 0.000000 -0.468015 0.006000 0.000000 -0.275978 0.006000 0.000000 -0.006000 0.006000 0.000000 -1.014040 0.006000 0.000000 -0.587047 0.006000 0.000000 -1.038089 0.009000 0.000000 -0.029999 -0.009000 0.000000 -0.078001 -0.006000 0.000000 -0.006000 -0.006000 0.000000 -0.120009 -0.006000 0.000000 -0.501161 -0.006000 0.000000 -0.006000 -0.006000 0.000000 -0.801404 -0.006000 0.000000 -0.030000 -0.006000 0.000000 -0.942269 -0.006000 0.000000 -0.006000 0.000000 0.000000 -0.006000 0.000000 0.000000 -0.824727 0.006000 0.000000 -0.006000 0.006000 0.000000 -0.006000 0.006000 0.000000 -0.450043 0.006000 0.000000 -0.255112 0.006000 0.000000 -0.006000 0.006000 0.000000 -1.020072 0.006000 0.000000 -0.523370 0.006000 0.000000 -1.032550 0.009000 0.000000 -0.030000 -0.009000 0.000000 -0.078000 -0.006000 0.000000 -0.006000 -0.006000 0.000000 -0.125984 -0.006000 0.000000 -0.518779 -0.006000 0.000000 -0.006000 -0.006000 0.000000 -0.800659 -0.006000 0.000000 -0.030000 -0.006000 0.000000 -0.909081 -0.006000 0.000000 -0.006000 0.000000 0.000000 -0.006000 0.000000 0.000000 -0.950480 0.006000 0.000000 -0.006000 0.006000 0.000000 -0.006000 0.006000 0.000000 -0.443922 0.006000 0.000000 -0.347991 0.006000 0.000000 -0.006000 0.006000 0.000000 -1.019935 0.006000 0.000000 -0.556967 0.006000 0.000000 -1.043894 0.009000 0.000000 -0.030000 -0.009000 0.000000 -0.072000 -0.006000 0.000000 -0.006000 -0.006000 0.000000 -0.107993 -0.006000 0.000000 -0.267242 -0.006000 0.000000 -0.006000 -0.006000 0.000000 -0.770964 -0.006000 0.000000 -0.030000 -0.006000 0.000000 -0.857938 -0.006000 0.000000 -0.006000 0.000000 0.000000 -0.006000 0.000000 0.000000 -0.834052 0.006000 0.000000 -0.006000 0.006000 0.000000 -0.006000 0.006000 0.000000 -0.438007 0.006000 0.000000 -0.242943 0.006000 0.000000 -0.006000 0.006000 0.000000 -1.014110 0.006000 0.000000 -0.516555 0.006000 0.000000 -1.044335 0.009000 0.000000 -0.030000 -0.009000 0.000000 -0.072001 -0.006000 0.000000 -0.006000 -0.006000 0.000000 -0.102007 -0.006000 0.000000 -0.419581 -0.006000 0.000000 -0.006000 -0.006000 0.000000 -0.765247 -0.006000 0.000000 -0.027000 -0.006000 0.000000 -0.918169 -0.006000 0.000000 -0.006000 0.000000 0.000000 -0.006000 0.000000 0.000000 -0.845016 0.006000 0.000000 -0.006000 0.006000 0.000000 -0.006000 0.006000 0.000000 -0.510171 0.006000 0.000000 -0.225029 0.006000 0.000000 -0.006000 0.006000 0.000000 -1.002177 0.006000 0.000000 -0.445934 0.006000 0.000000 -1.031803 0.009000 0.000000 -0.024000 -0.009000 0.000000 -0.071999 -0.006000 0.000000 -0.006000 -0.006000 0.000000 -0.095990 -0.006000 0.000000 -0.426387 -0.006000 0.000000 -0.006000 -0.006000 0.000000 -0.873006 -0.006000 0.000000 -0.024000 -0.006000 0.000000 -0.981398 -0.006000 0.000000 -0.006000 0.000000 0.000000 -0.006000 0.000000 0.000000 -0.914641 0.006000 0.000000 -0.006000 0.006000 0.000000 -0.006000 0.006000 0.000000 -0.425951 0.006000 0.000000 -0.338939 0.006000 0.000000 -0.006000 0.006000 0.000000 -0.990154 0.006000 0.000000 -0.450861 0.006000 0.000000 -1.032062 0.009000 0.000000 -0.024000 -0.009000 0.000000 -0.072001 -0.006000 0.000000 -0.006000 -0.006000 0.000000 -0.102002 -0.006000 0.000000 -0.240027 -0.006000 0.000000 -0.006000 -0.006000 0.000000 -0.762190 -0.006000 0.000000 -0.024000 -0.006000 0.000000 -0.870342 -0.006000 0.000000 -0.006000 0.000000 0.000000 -0.006000 0.000000 0.000000 -0.693323 0.006000 0.000000 -0.006000 0.006000 0.000000 -0.006000 0.006000 0.000000 -0.426018 0.006000 0.000000 -0.204264 0.006000 0.000000 -0.006000 0.006000 0.000000 -0.972053 0.006000 0.000000 -0.399999 0.006000 0.000000 -1.008406 0.009000 0.000000 -0.024000 -0.009000 0.000000 -0.072000 -0.006000 0.000000 -0.006000 -0.006000 0.000000 -0.102012 -0.006000 0.000000 -0.413978 -0.006000 0.000000 -0.006000 -0.006000 0.000000 -0.828148 -0.006000 0.000000 -0.024000 -0.006000 0.000000 -0.945457 -0.006000 0.000000 -0.006000 0.000000 0.000000 -0.006000 0.000000 0.000000 -0.963371 0.006000 0.000000 -0.006000 0.006000 0.000000 -0.006000 0.006000 0.000000 -0.408042 0.006000 0.000000 -0.266697 0.006000 0.000000 -0.006000 0.006000 0.000000 -0.959440 0.006000 0.000000 -0.405277 0.006000 0.000000 -1.000668 0.009000 0.000000 -0.024000 -0.009000 0.000000 -0.072002 -0.006000 0.000000 -0.006000 -0.006000 0.000000 -0.060003 -0.006000 0.000000 -0.413959 -0.006000 0.000000 -0.006000 -0.006000 0.000000 -0.714526 -0.006000 0.000000 -0.024000 -0.006000 0.000000 -0.945711 -0.006000 0.000000 -0.006000 0.000000 0.000000 -0.006000 0.000000 0.000000 -0.652907 0.006000 0.000000 -0.006000 0.006000 0.000000 -0.006000 0.006000 0.000000 -0.408049 0.006000 0.000000 -0.279003 0.006000 0.000000 -0.006000 0.006000 0.000000 -0.977997 0.006000 0.000000 -0.372004 0.006000 0.000000 -0.971981 0.009000 0.000000 -0.024000 -0.009000 0.000000 -0.066002 -0.006000 0.000000 -0.006000 -0.006000 0.000000 -0.060008 -0.006000 0.000000 -0.354429 -0.006000 0.000000 -0.006000 -0.006000 0.000000 -0.816464 -0.006000 0.000000 -0.024000 -0.006000 0.000000 -0.898986 -0.006000 0.000000 -0.006000 0.000000 0.000000 -0.006000 0.000000 0.000000 -0.588237 0.006000 0.000000 -0.006000 0.006000 0.000000 -0.000000 0.006000 0.000000 -0.401973 0.006000 0.000000 -0.271292 0.006000 0.000000 -0.000000 0.006000 0.000000 -0.967271 0.006000 0.000000 -0.379437 0.006000 0.000000 -0.944655 0.009000 0.000000 -0.024000 -0.009000 0.000000 -0.035996 -0.006000 0.000000 -0.006000 -0.006000 0.000000 -0.077998 -0.006000 0.000000 -0.305663 -0.006000 0.000000 -0.006000 -0.006000 0.000000 -0.702212 -0.005999 0.000000 -0.024000 -0.006000 0.000000 -0.913183 -0.006004 0.000000 -0.006000 0.000000 0.000000 -0.006000 0.000000 0.000000 -0.422226 0.006003 0.000000 -0.000000 0.006000 0.000000 -0.000000 0.006000 0.000000 -0.390110 0.006000 0.000000 -0.176937 0.006000 0.000000 0.000000 0.006000 0.000000 -0.948149 0.006001 0.000000 -0.338736 0.006000 0.000000 -0.924884 0.009002 0.000000 -0.018000 -0.009000 0.000000 -0.048004 -0.006000 0.000000 -0.006000 -0.006000 0.000000 0.029969 -0.006000 0.000000 -0.326647 -0.005993 0.000000 -0.006000 -0.006000 0.000000 -0.845475 -0.006035 0.000000 -0.030004 -0.006000 0.000000 -0.828595 -0.005927 0.000000 -0.006000 0.000000 0.000000 -0.006000 0.000000 0.000000 -0.565902 0.005927 0.000000 -0.000000 0.006000 0.000000 -0.000000 0.006000 0.000000 -0.384025 0.006000 0.000000 -0.194179 0.006000 0.000000 0.000000 0.006000 0.000000 -0.864300 0.005976 0.000000 -0.283629 0.005998 0.000000 -0.912145 0.008960 0.000000 -0.018000 -0.009000 0.000000 -0.048002 -0.006000 0.000000 -0.000000 -0.005998 0.000000 0.047858 -0.006000 0.000000 -0.219621 -0.005983 0.000000 -0.006000 -0.006000 0.000000 -0.860237 -0.005116 0.000000 -0.024149 -0.006000 0.000000 -0.973023 -0.006736 0.000000 -0.006000 0.000000 0.000000 -0.006000 0.000000 0.000000 -0.529056 0.007082 0.000000 -0.000000 0.006000 0.000000 -0.000000 0.006000 0.000000 -0.378208 0.006000 0.000000 -0.217272 0.006034 0.000000 0.000000 0.006000 0.000000 -0.841043 0.006538 0.000000 0.250733 0.006079 0.000000 -0.893492 0.009787 0.000000 -0.018000 -0.009000 0.000000 -0.036005 -0.011926 0.000000 0.000038 -0.012002 0.000000 0.065930 -0.006018 0.000000 -0.211648 -0.008853 0.000000 -0.005940 0.006000 0.000000 -0.819010 -0.016728 0.000000 -0.305847 -0.006009 0.000000 -0.982055 -0.005625 0.000000 -0.006000 -0.000000 0.000000 -0.006000 0.000000 0.000000 -0.338192 -0.003524 0.000000 -0.000000 0.006000 0.000000 -0.000000 0.006000 0.000000 -0.329986 0.005960 0.000000 -0.253353 0.003680 0.000000 -0.000000 0.006000 0.000000 -0.723489 -0.003492 0.000000 0.322117 0.003992 0.000000 -0.831508 -0.001154 0.000000 -0.012000 -0.009000 0.000000 -0.030019 -0.017037 0.000000 -0.005975 -0.011989 0.000000 0.104839 -0.005103 0.000000 -0.062869 0.014721 0.000000 -0.005868 0.000000 0.000000 -0.714499 0.057676 0.000000 -0.306760 0.002681 0.000000 -0.962151 0.062378 0.000000 0.000000 0.000001 0.000000 -0.006000 0.000000 0.000000 -0.340233 0.057834 0.000000 -0.000000 0.006000 0.000000 -0.000000 0.006000 0.000000 -0.366588 0.008374 0.000000 -0.261900 0.052150 0.000000 0.000464 0.053997 0.000000 -1.059221 0.116064 0.000000 0.365495 0.037811 0.000000 -0.652308 0.085002 0.000000 -0.011850 -0.087063 0.000000 -0.024987 -0.151126 0.000000 0.004819 -0.114005 0.000000 0.123324 -0.100894 0.000000 -0.161666 -0.142169 0.000000 0.045357 -0.158024 0.000000 -1.090727 -0.256357 0.000000 -0.357587 -0.371867 0.000000 -2.872624 -0.740476 0.000000 -0.000850 -0.306021 0.000000 0.044637 -0.280382 0.000000 -0.410306 -0.193734 0.000000 -0.543321 -0.281797 0.000000 0.068155 -0.412514 0.000000 -0.359187 -0.252276 0.000000 -0.253612 -0.185908 0.000000 0.100463 -0.213261 0.000000 -0.059495 -0.084861 0.000000 1.108901 0.010561 0.000000 1.103902 0.438099 0.000000 0.043789 0.048334 0.000000 -0.006808 0.041980 0.000000 0.006097 0.065999 0.000000 0.146772 0.184208 0.000000 -0.335552 0.762054 0.000000 0.013704 0.761848 0.000000 -0.233734 0.833349 0.000000 -0.578373 0.919452 0.000000 -1.212455 1.336053 0.000000 0.536850 0.998624 0.000000 0.149693 0.822626 0.000000 -0.223443 0.884874 0.000000 -2.318963 1.147939 0.000000 0.079303 1.208663 0.000000 -0.341162 1.299812 0.000000 -0.435519 1.394677 0.000000 0.098284 1.437917 0.000000 0.049460 1.502199 0.000000 0.814802 1.445233 0.000000 2.521562 1.309509 0.000000 -2.146957 -2.378849 0.000000 0.118911 -1.452059 0.000000 -0.007991 -1.635150 0.000000 0.232462 -1.302163 0.000000 -1.109498 -1.619759 0.000000 0.824412 -1.617190 0.000000 0.149579 -1.292933 0.000000 0.356871 -1.394617 0.000000 -1.718986 -1.166434 0.000000 0.249505 -2.690386 0.000000 0.557589 -2.479458 0.000000 -1.611454 -3.115418 0.000000 -31.150296 15.046514 0.000000 0.469104 -0.182310 0.000000 -0.735767 -0.740175 0.000000 -3.925250 -1.393442 0.000000 1.823682 -1.312894 0.000000 0.857232 -0.959353 0.000000 -0.436470 5.244588 0.000000 3.753410 1.463794 0.000000 -0.010584 -9.711135 0.000000 -0.038460 -9.610739 0.000000 1.319405 -9.001982 0.000000 0.376225 -4.656157 0.000000 -0.199741 -6.114074 0.000000 -1.405047 -2.996466 0.000000 2.666322 -1.953428 0.000000 1.727148 -0.866199 0.000000 4.779846 -3.636786 0.000000 -1.110581 -1.088317 0.000000 1.919843 0.313853 0.000000 0.800672 0.028648 0.000000 -8.420930 -0.842411 0.000000 2.754832 2.103749 0.000000 0.088531 2.704563 0.000000 -36.767105 32.526622 0.000000 3.971649 -0.479694 0.000000 0.214844 -0.272375 0.000000 -7.889254 4.445474 0.000000 5.440524 -5.076778 0.000000 -0.015617 -11.463270 0.000000 -0.188243 -11.362260 0.000000 0.093915 -8.790232 0.000000 0.864568 -10.163362 0.000000 -0.204065 -4.843624 0.000000 -2.938816 -7.662388 0.000000 -0.298850 -5.586796 0.000000 0.292276 -11.768627 0.000000 5.494443 -5.808310 0.000000 1.020000 0.800384 0.000000 0.333184 -0.761803 0.000000 12.146208 -39.659857 0.000000 -34.254102 10.859179 0.000000 -62.905183 -9.051042 0.000000 -79.303214 37.896633 0.000000 -0.914867 1.132679 0.000000 2.699194 30.461645 0.000000 3.531649 4.331666 0.000000 0.184984 7.980521 0.000000 -4.744230 -7.899053 0.000000 -0.019696 -11.205235 0.000000 -0.051414 -11.158706 0.000000 -0.408243 -8.662238 0.000000 0.789450 -9.271949 0.000000 -0.418948 -4.677035 0.000000 -1.275948 -8.788581 0.000000 1.214267 -3.834808 0.000000 4.006622 -6.516918 0.000000 3.764768 -5.769548 0.000000 0.339191 -1.638498 0.000000 0.369227 -6.685065 0.000000 4.175783 -4.268898 0.000000 -1.850438 -15.279021 0.000000 -6.252213 0.274171 0.000000 -24.969235 -2.566300 0.000000 10.016739 0.118678 0.000000 6.117350 -8.745049 0.000000 58.402374 20.045154 0.000000 -1.062553 20.702655 0.000000 22.691054 -85.135641 0.000000 -0.014321 -11.235478 0.000000 0.057558 -11.080758 0.000000 -0.313672 -8.937344 0.000000 0.808736 -9.098303 0.000000 -0.532189 -4.423406 0.000000 -0.993664 -8.146482 0.000000 1.201816 -3.680422 0.000000 2.928928 -5.792526 0.000000 2.322567 -3.149943 0.000000 1.469258 -4.134987 0.000000 -28.717945 -38.919011 0.000000 1.873690 -5.660848 0.000000 0.981545 0.991402 0.000000 13.324283 -32.923598 0.000000 28.013353 -31.870585 0.000000 -35.460565 10.416437 0.000000 -48.705790 46.198811 0.000000 -6.458322 -5.715982 0.000000 -17.214105 -56.033956 0.000000 15.237323 22.411438 0.000000 -0.010264 -11.391358 0.000000 0.140677 -11.287046 0.000000 -0.340786 -8.273948 0.000000 0.991065 -9.600561 0.000000 -0.532455 -4.812151 0.000000 -0.731803 -5.350159 0.000000 0.249426 -6.623871 0.000000 3.252870 -6.496211 0.000000 2.839126 -8.263155 0.000000 -4.660242 -20.492109 0.000000 -45.316418 -58.287416 0.000000 -54.702117 -8.752780 0.000000 -87.241223 -6.002172 0.000000 7.406588 -3.981599 0.000000 35.785129 -13.970435 0.000000 -11.753880 -50.597754 0.000000 52.247550 -27.133616 0.000000 -27.715835 -116.878294 0.000000 216.399993 37.6182