<VTKFile type="UnstructuredGrid" version="0.1" byte_order="LittleEndian">
  <UnstructuredGrid>
    <Piece NumberOfPoints="2000" NumberOfCells="0">
      <Points>
        <DataArray name="Position" type="Float32" NumberOfComponents="3" format="ascii">
-0.001951 -0.001174 0.000000 -0.001951 0.999218 0.000000 -0.001951 1.999218 0.000000 -0.001951 2.999218 0.000000 -0.002566 3.999219 0.000000 -0.002700 4.999219 0.000000 -0.002686 5.999219 0.000000 -0.002721 6.999219 0.000000 -0.001942 7.999220 0.000000 -0.002720 9.000000 0.000000 -0.001938 10.000001 0.000000 -0.001937 11.000780 0.000000 -0.001939 12.000781 0.000000 -0.001939 13.000781 0.000000 -0.001939 14.000781 0.000000 -0.001933 15.000781 0.000000 -0.001933 16.000782 0.000000 -0.001933 17.000782 0.000000 -0.001933 18.000782 0.000000 -0.001933 19.001174 0.000000 0.999215 -0.001174 0.000000 0.999215 0.999218 0.000000 0.999215 1.999218 0.000000 0.999133 2.999218 0.000000 0.998356 3.999219 0.000000 0.997697 4.999219 0.000000 0.997767 5.999219 0.000000 0.998441 6.999219 0.000000 0.999098 7.999220 0.000000 0.998442 9.000000 0.000000 0.999064 10.000001 0.000000 0.999208 11.000780 0.000000 0.999209 12.000781 0.000000 0.999209 13.000781 0.000000 0.999209 14.000781 0.000000 0.999206 15.000781 0.000000 0.999206 16.000782 0.000000 0.999206 17.000782 0.000000 0.999125 18.000782 0.000000 0.998917 19.001174 0.000000 1.999218 -0.001174 0.000000 1.999218 0.999218 0.000000 1.999218 1.999218 0.000000 1.999137 2.999218 0.000000 1.999119 3.999219 0.000000 1.998433 4.999219 0.000000 1.998426 5.999219 0.000000 1.998445 6.999219 0.000000 1.999099 7.999220 0.000000 1.998445 9.000000 0.000000 1.999089 10.000001 0.000000 1.999218 11.000780 0.000000 1.999218 12.000781 0.000000 1.999218 13.000781 0.000000 1.999218 14.000781 0.000000 1.999218 15.000781 0.000000 1.999218 16.000782 0.000000 1.999218 17.000782 0.000000 1.999135 18.000782 0.000000 1.998931 19.001174 0.000000 2.999218 -0.001174 0.000000 2.999218 0.999218 0.000000 2.999218 1.999218 0.000000 2.999143 2.999218 0.000000 2.999154 3.999218 0.000000 2.998441 4.999219 0.000000 2.998443 5.999219 0.000000 2.998449 6.999219 0.000000 2.999101 7.999220 0.000000 2.998449 9.000000 0.000000 2.999093 10.000001 0.000000 2.999218 11.000780 0.000000 2.999218 12.000781 0.000000 2.999218 13.000781 0.000000 2.999218 14.000781 0.000000 2.999218 15.000781 0.000000 2.999218 16.000782 0.000000 2.999218 17.000782 0.000000 2.999152 18.000782 0.000000 2.998942 19.001174 0.000000 3.999218 -0.001174 0.000000 3.999218 0.999218 0.000000 3.999218 1.999218 0.000000 3.999211 2.999219 0.000000 3.999171 3.999219 0.000000 3.998443 4.999219 0.000000 3.998448 5.999219 0.000000 3.999113 6.999219 0.000000 3.999101 7.999220 0.000000 3.999212 9.000000 0.000000 3.999112 10.000001 0.000000 3.999218 11.000780 0.000000 3.999218 12.000781 0.000000 3.999218 13.000781 0.000000 3.999218 14.000781 0.000000 3.999218 15.000781 0.000000 3.999218 16.000782 0.000000 3.999218 17.000782 0.000000 3.999160 18.000782 0.000000 3.998953 19.001174 0.000000 4.999219 -0.004207 0.000000 4.999219 0.997643 0.000000 4.999219 1.997664 0.000000 4.999212 2.997670 0.000000 4.999213 3.998427 0.000000 4.998444 4.998439 0.000000 4.998479 5.998448 0.000000 4.999142 6.998460 0.000000 4.999138 7.999183 0.000000 4.999217 8.999218 0.000000 4.999114 9.999255 0.000000 4.999218 11.000001 0.000000 4.999219 12.000781 0.000000 4.999219 13.000781 0.000000 4.999219 14.000781 0.000000 4.999219 15.000781 0.000000 4.999219 16.000782 0.000000 4.999219 17.000782 0.000000 4.999176 18.000782 0.000000 4.998978 19.001174 0.000000 5.999220 -0.001944 0.000000 5.999220 0.998476 0.000000 5.999220 1.999211 0.000000 5.999218 2.999218 0.000000 5.999220 3.999218 0.000000 5.998450 4.999218 0.000000 5.998484 5.999219 0.000000 5.999210 6.999961 0.000000 5.999157 8.000000 0.000000 5.999217 9.000000 0.000000 5.999130 10.000001 0.000000 5.999218 11.000780 0.000000 5.999219 12.000781 0.000000 5.999219 13.000781 0.000000 5.999219 14.000781 0.000000 5.999219 15.000781 0.000000 5.999219 16.000782 0.000000 5.999219 17.000782 0.000000 5.999177 18.000782 0.000000 5.999074 19.001174 0.000000 6.999220 -0.001174 0.000000 6.999220 0.999218 0.000000 6.999220 1.999218 0.000000 6.999219 2.999218 0.000000 6.999220 3.999218 0.000000 6.999210 4.999218 0.000000 6.999210 5.999219 0.000000 6.999215 6.999219 0.000000 6.999162 7.999222 0.000000 6.999218 8.999999 0.000000 6.999140 10.000001 0.000000 6.999219 11.000780 0.000000 6.999219 12.000781 0.000000 6.999219 13.000781 0.000000 6.999219 14.000781 0.000000 6.999219 15.000781 0.000000 6.999219 16.000782 0.000000 6.999219 17.000782 0.000000 6.999180 18.000782 0.000000 6.999076 19.001174 0.000000 7.999220 -0.001174 0.000000 7.999220 0.999218 0.000000 7.999220 1.999218 0.000000 7.999220 2.999218 0.000000 7.999221 3.999218 0.000000 7.999216 4.999219 0.000000 7.999216 5.999219 0.000000 7.999216 6.999219 0.000000 7.999165 7.999220 0.000000 7.999219 8.999999 0.000000 7.999148 10.000001 0.000000 7.999219 11.000780 0.000000 7.999219 12.000781 0.000000 7.999219 13.000781 0.000000 7.999219 14.000781 0.000000 7.999219 15.000781 0.000000 7.999219 16.000782 0.000000 7.999219 17.000782 0.000000 7.999181 18.000782 0.000000 7.999079 19.001174 0.000000 8.999220 -0.001174 0.000000 8.999220 0.999218 0.000000 8.999220 1.999218 0.000000 8.999220 2.999218 0.000000 8.999221 3.999219 0.000000 8.999217 4.999219 0.000000 8.999218 5.999219 0.000000 8.999216 6.999219 0.000000 8.999169 7.999220 0.000000 8.999220 9.000000 0.000000 8.999153 10.000001 0.000000 8.999220 11.000780 0.000000 8.999220 12.000781 0.000000 8.999220 13.000781 0.000000 8.999220 14.000781 0.000000 8.999220 15.000781 0.000000 8.999220 16.000782 0.000000 8.999220 17.000782 0.000000 8.999181 18.000782 0.000000 8.999081 19.001174 0.000000 9.999221 -0.001174 0.000000 9.999221 0.999218 0.000000 9.999221 1.999218 0.000000 9.999220 2.999218 0.000000 9.999221 3.999219 0.000000 9.999219 4.999219 0.000000 9.999219 5.999219 0.000000 9.999219 6.999219 0.000000 9.999207 7.999220 0.000000 9.999220 9.000000 0.000000 9.999155 10.000001 0.000000 9.999220 11.000780 0.000000 9.999220 12.000781 0.000000 9.999220 13.000781 0.000000 9.999220 14.000781 0.000000 9.999220 15.000781 0.000000 9.999220 16.000782 0.000000 9.999220 17.000782 0.000000 9.999184 18.000782 0.000000 9.999085 19.001174 0.000000 10.999221 -0.001174 0.000000 10.999221 0.999218 0.000000 10.999221 1.999218 0.000000 10.999221 2.999218 0.000000 10.999222 3.999219 0.000000 10.999224 4.999219 0.000000 10.999224 5.999219 0.000000 10.999222 6.999219 0.000000 10.999222 7.999220 0.000000 10.999222 9.000000 0.000000 10.999155 10.000001 0.000000 10.999220 11.000780 0.000000 10.999220 12.000781 0.000000 10.999220 13.000781 0.000000 10.999220 14.000781 0.000000 10.999220 15.000781 0.000000 10.999220 16.000782 0.000000 10.999220 17.000782 0.000000 10.999185 18.000782 0.000000 10.999087 19.001174 0.000000 11.999221 -0.001174 0.000000 11.999221 0.999218 0.000000 11.999221 1.999218 0.000000 11.999221 2.999218 0.000000 11.999222 3.999219 0.000000 11.999224 4.999219 0.000000 11.999224 5.999219 0.000000 11.999222 6.999219 0.000000 11.999222 7.999220 0.000000 11.999222 9.000000 0.000000 11.999157 10.000001 0.000000 11.999221 11.000780 0.000000 11.999221 12.000781 0.000000 11.999221 13.000781 0.000000 11.999221 14.000781 0.000000 11.999221 15.000781 0.000000 11.999221 16.000782 0.000000 11.999221 17.000782 0.000000 11.999186 18.000782 0.000000 11.999097 19.001174 0.000000 12.999222 -0.001174 0.000000 12.999222 0.999218 0.000000 12.999222 1.999218 0.000000 12.999221 2.999218 0.000000 12.999222 3.999219 0.000000 12.999224 4.999219 0.000000 12.999224 5.999219 0.000000 12.999223 6.999219 0.000000 12.999223 7.999220 0.000000 12.999223 9.000000 0.000000 12.999205 10.000001 0.000000 12.999221 11.000780 0.000000 12.999221 12.000781 0.000000 12.999221 13.000781 0.000000 12.999221 14.000781 0.000000 12.999221 15.000781 0.000000 12.999221 16.000782 0.000000 12.999221 17.000782 0.000000 12.999188 18.000782 0.000000 12.999099 19.001174 0.000000 13.999222 -0.001174 0.000000 13.999222 0.999218 0.000000 13.999222 1.999218 0.000000 13.999222 2.999218 0.000000 13.999222 3.999219 0.000000 13.999224 4.999219 0.000000 13.999224 5.999219 0.000000 13.999223 6.999219 0.000000 13.999223 7.999220 0.000000 13.999223 9.000000 0.000000 13.999215 10.000001 0.000000 13.999221 11.000780 0.000000 13.999221 12.000781 0.000000 13.999221 13.000781 0.000000 13.999221 14.000781 0.000000 13.999221 15.000781 0.000000 13.999221 16.000782 0.000000 13.999221 17.000782 0.000000 13.999190 18.000782 0.000000 13.999204 19.001174 0.000000 14.999222 -0.001174 0.000000 14.999222 0.999218 0.000000 14.999222 1.999218 0.000000 14.999222 2.999218 0.000000 14.999223 3.999219 0.000000 14.999225 4.999219 0.000000 14.999225 5.999219 0.000000 14.999223 6.999219 0.000000 14.999223 7.999220 0.000000 14.999223 9.000000 0.000000 14.999215 10.000001 0.000000 14.999222 11.000780 0.000000 14.999222 12.000781 0.000000 14.999222 13.000781 0.000000 14.999222 14.000781 0.000000 14.999222 15.000781 0.000000 14.999222 16.000782 0.000000 14.999222 17.000782 0.000000 14.999203 18.000782 0.000000 14.999216 19.001174 0.000000 15.999222 -0.001174 0.000000 15.999222 0.999218 0.000000 15.999222 1.999218 0.000000 15.999222 2.999218 0.000000 15.999223 3.999219 0.000000 15.999225 4.999219 0.000000 15.999225 5.999219 0.000000 15.999224 6.999219 0.000000 15.999224 7.999220 0.000000 15.999224 9.000000 0.000000 15.999218 10.000001 0.000000 15.999223 11.000780 0.000000 15.999223 12.000781 0.000000 15.999223 13.000781 0.000000 15.999223 14.000781 0.000000 15.999222 15.000781 0.000000 15.999222 16.000782 0.000000 15.999222 17.000782 0.000000 15.999215 18.000782 0.000000 15.999216 19.001174 0.000000 16.999223 -0.001174 0.000000 16.999223 0.999218 0.000000 16.999223 1.999218 0.000000 16.999222 2.999218 0.000000 16.999223 3.999219 0.000000 16.999225 4.999219 0.000000 16.999225 5.999219 0.000000 16.999224 6.999219 0.000000 16.999224 7.999220
[...]
      <PointData Vectors="vector">
        <DataArray type="Float32" Name="Velocity" NumberOfComponents="3" format="ascii">
-0.015000 -0.009000 0.000000 -0.015000 -0.006000 0.000000 -0.015000 -0.006000 0.000000 -0.015000 -0.006000 0.000000 -0.021000 -0.006000 0.000000 -0.021000 -0.006000 0.000000 -0.021000 -0.006000 0.000000 -0.021000 -0.006000 0.000000 -0.015000 -0.006000 0.000000 -0.021000 0.000000 0.000000 -0.015000 0.000000 0.000000 -0.015000 0.006000 0.000000 -0.015000 0.006000 0.000000 -0.015000 0.006000 0.000000 -0.015000 0.006000 0.000000 -0.015000 0.006000 0.000000 -0.015000 0.006000 0.000000 -0.015000 0.006000 0.000000 -0.015000 0.006000 0.000000 -0.015000 0.009000 0.000000 -0.006000 -0.009000 0.000000 -0.006000 -0.006000 0.000000 -0.006000 -0.006000 0.000000 -0.018000 -0.006000 0.000000 -0.012000 -0.006000 0.000000 -0.018000 -0.006000 0.000000 -0.018000 -0.006000 0.000000 -0.012000 -0.006000 0.000000 -0.018000 -0.006000 0.000000 -0.012000 0.000000 0.000000 -0.018000 0.000000 0.000000 -0.006000 0.006000 0.000000 -0.006000 0.006000 0.000000 -0.006000 0.006000 0.000000 -0.006000 0.006000 0.000000 -0.006000 0.006000 0.000000 -0.006000 0.006000 0.000000 -0.006000 0.006000 0.000000 -0.018000 0.006000 0.000000 -0.018000 0.009000 0.000000 -0.006000 -0.009000 0.000000 -0.006000 -0.006000 0.000000 -0.006000 -0.006000 0.000000 -0.018000 -0.006000 0.000000 -0.018000 -0.006000 0.000000 -0.012000 -0.006000 0.000000 -0.012000 -0.006000 0.000000 -0.012000 -0.006000 0.000000 -0.018000 -0.006000 0.000000 -0.012000 0.000000 0.000000 -0.018000 0.000000 0.000000 -0.006000 0.006000 0.000000 -0.006000 0.006000 0.000000 -0.006000 0.006000 0.000000 -0.006000 0.006000 0.000000 -0.006000 0.006000 0.000000 -0.006000 0.006000 0.000000 -0.006000 0.006000 0.000000 -0.018000 0.006000 0.000000 -0.018000 0.009000 0.000000 -0.006000 -0.009000 0.000000 -0.006000 -0.006000 0.000000 -0.006000 -0.006000 0.000000 -0.018000 -0.006000 0.000000 -0.018000 -0.006000 0.000000 -0.012000 -0.006000 0.000000 -0.012000 -0.006000 0.000000 -0.012000 -0.006000 0.000000 -0.018000 -0.006000 0.000000 -0.012000 -0.000000 0.000000 -0.018000 -0.000000 0.000000 -0.006000 0.006000 0.000000 -0.006000 0.006000 0.000000 -0.006000 0.006000 0.000000 -0.006000 0.006000 0.000000 -0.006000 0.006000 0.000000 -0.006000 0.006000 0.000000 -0.006000 0.006000 0.000000 -0.018000 0.006000 0.000000 -0.018000 0.009000 0.000000 -0.006000 -0.009000 0.000000 -0.006000 -0.006000 0.000000 -0.006000 -0.006000 0.000000 -0.018000 -0.005929 0.000000 -0.018000 -0.005972 0.000000 -0.012000 -0.006000 0.000000 -0.012000 -0.005999 0.000000 -0.018000 -0.005991 0.000000 -0.018000 -0.006000 0.000000 -0.006000 0.000000 0.000000 -0.018000 0.000034 0.000000 -0.006000 0.006000 0.000000 -0.006000 0.006000 0.000000 -0.006000 0.006000 0.000000 -0.006000 0.006000 0.000000 -0.006000 0.006000 0.000000 -0.006000 0.006000 0.000000 -0.006000 0.006000 0.000000 -0.018000 0.006000 0.000000 -0.018000 0.009000 0.000000 -0.006000 -0.033000 0.000000 -0.006000 -0.018000 0.000000 -0.006000 -0.018000 0.000000 -0.006000 -0.018071 0.000000 -0.006000 -0.012028 0.000000 -0.012001 -0.012001 0.000000 -0.012000 -0.012001 0.000000 -0.018000 -0.012042 0.000000 -0.018000 -0.012044 0.000000 -0.006000 -0.006000 0.000000 -0.018000 -0.000078 0.000000 -0.006000 -0.000000 0.000000 -0.006000 0.006000 0.000000 -0.006000 0.006000 0.000000 -0.006000 0.006000 0.000000 -0.006000 0.006000 0.000000 -0.006000 0.006000 0.000000 -0.006000 0.006000 0.000000 -0.012000 0.006000 0.000000 -0.018000 0.009000 0.000000 -0.006000 -0.015000 0.000000 -0.006000 -0.012000 0.000000 -0.006000 -0.006000 0.000000 -0.000000 -0.005929 0.000000 -0.006000 -0.005972 0.000000 -0.012000 -0.006000 0.000000 -0.012000 -0.005999 0.000000 -0.006000 0.000051 0.000000 -0.012000 0.000091 0.000000 -0.006000 0.000000 0.000000 -0.018000 0.000043 0.000000 -0.006000 0.006000 0.000000 -0.006000 0.006000 0.000000 -0.006000 0.006000 0.000000 -0.006000 0.006000 0.000000 -0.006000 0.006000 0.000000 -0.006000 0.006000 0.000000 -0.006000 0.006000 0.000000 -0.012000 0.006000 0.000000 -0.012000 0.009000 0.000000 -0.006000 -0.009000 0.000000 -0.006000 -0.006000 0.000000 -0.006000 -0.006000 0.000000 -0.006000 -0.012000 0.000000 -0.006000 -0.006000 0.000000 -0.006000 -0.006000 0.000000 -0.006000 -0.006000 0.000000 -0.006000 -0.006017 0.000000 -0.012000 -0.000048 0.000000 -0.006000 -0.000000 0.000000 -0.012000 -0.000000 0.000000 -0.006000 0.006000 0.000000 -0.006000 0.006000 0.000000 -0.006000 0.006000 0.000000 -0.006000 0.006000 0.000000 -0.006000 0.006000 0.000000 -0.006000 0.006000 0.000000 -0.006000 0.006000 0.000000 -0.018000 0.006000 0.000000 -0.012000 0.009000 0.000000 -0.006000 -0.009000 0.000000 -0.006000 -0.006000 0.000000 -0.006000 -0.006000 0.000000 -0.006000 -0.006000 0.000000 -0.006000 -0.006000 0.000000 -0.006000 -0.006000 0.000000 -0.006000 -0.006000 0.000000 -0.006000 -0.006000 0.000000 -0.012000 -0.006000 0.000000 -0.006000 0.000000 0.000000 -0.012000 0.000000 0.000000 -0.006000 0.006000 0.000000 -0.006000 0.006000 0.000000 -0.006000 0.006000 0.000000 -0.006000 0.006000 0.000000 -0.006000 0.006000 0.000000 -0.006000 0.006000 0.000000 -0.006000 0.006000 0.000000 -0.018000 0.006000 0.000000 -0.012000 0.009000 0.000000 -0.006000 -0.009000 0.000000 -0.006000 -0.006000 0.000000 -0.006000 -0.006000 0.000000 -0.006000 -0.006000 0.000000 -0.006000 -0.006000 0.000000 -0.006000 -0.006000 0.000000 -0.006000 -0.006000 0.000000 -0.006000 -0.006000 0.000000 -0.012000 -0.006000 0.000000 -0.006000 0.000000 0.000000 -0.012000 0.000000 0.000000 -0.006000 0.006000 0.000000 -0.006000 0.006000 0.000000 -0.006000 0.006000 0.000000 -0.006000 0.006000 0.000000 -0.006000 0.006000 0.000000 -0.006000 0.006000 0.000000 -0.006000 0.006000 0.000000 -0.018000 0.006000 0.000000 -0.012000 0.009000 0.000000 -0.006000 -0.009000 0.000000 -0.006000 -0.006000 0.000000 -0.006000 -0.006000 0.000000 -0.006000 -0.006000 0.000000 -0.006000 -0.006000 0.000000 -0.006000 -0.006000 0.000000 -0.006000 -0.006000 0.000000 -0.006000 -0.006000 0.000000 -0.006000 -0.006000 0.000000 -0.006000 -0.000000 0.000000 -0.012000 0.000000 0.000000 -0.006000 0.006000 0.000000 -0.006000 0.006000 0.000000 -0.006000 0.006000 0.000000 -0.006000 0.006000 0.000000 -0.006000 0.006000 0.000000 -0.006000 0.006000 0.000000 -0.006000 0.006000 0.000000 -0.012000 0.006000 0.000000 -0.012000 0.009000 0.000000 -0.006000 -0.009000 0.000000 -0.006000 -0.006000 0.000000 -0.006000 -0.006000 0.000000 -0.006000 -0.006000 0.000000 -0.006000 -0.006000 0.000000 -0.006000 -0.006000 0.000000 -0.006000 -0.006000 0.000000 -0.006000 -0.006000 0.000000 -0.006000 -0.006000 0.000000 -0.006000 0.000000 0.000000 -0.012000 0.000000 0.000000 -0.006000 0.006000 0.000000 -0.006000 0.006000 0.000000 -0.006000 0.006000 0.000000 -0.006000 0.006000 0.000000 -0.006000 0.006000 0.000000 -0.006000 0.006000 0.000000 -0.006000 0.006000 0.000000 -0.018000 0.006000 0.000000 -0.012000 0.009000 0.000000 -0.006000 -0.009000 0.000000 -0.006000 -0.006000 0.000000 -0.006000 -0.006000 0.000000 -0.006000 -0.006000 0.000000 -0.006000 -0.006000 0.000000 -0.006000 -0.006000 0.000000 -0.006000 -0.006000 0.000000 -0.006000 -0.006000 0.000000 -0.006000 -0.006000 0.000000 -0.006000 0.000000 0.000000 -0.012000 0.000000 0.000000 -0.006000 0.006000 0.000000 -0.006000 0.006000 0.000000 -0.006000 0.006000 0.000000 -0.006000 0.006000 0.000000 -0.006000 0.006000 0.000000 -0.006000 0.006000 0.000000 -0.006000 0.006000 0.000000 -0.012000 0.006000 0.000000 -0.012000 0.009000 0.000000 -0.006000 -0.009000 0.000000 -0.006000 -0.006000 0.000000 -0.006000 -0.006000 0.000000 -0.006000 -0.006000 0.000000 -0.006000 -0.006000 0.000000 -0.006000 -0.006000 0.000000 -0.006000 -0.006000 0.000000 -0.006000 -0.006000 0.000000 -0.006000 -0.006000 0.000000 -0.006000 0.000000 0.000000 -0.006000 0.000000 0.000000 -0.006000 0.006000 0.000000 -0.006000 0.006000 0.000000 -0.006000 0.006000 0.000000 -0.006000 0.006000 0.000000 -0.006000 0.006000 0.000000 -0.006000 0.006000 0.000000 -0.006000 0.006000 0.000000 -0.012000 0.006000 0.000000 -0.012000 0.009000 0.000000 -0.006000 -0.009000 0.000000 -0.006000 -0.006000 0.000000 -0.006000 -0.006000 0.000000 -0.006000 -0.006000 0.000000 -0.006000 -0.006000 0.000000 -0.006000 -0.006000 0.000000 -0.006000 -0.006000 0.000000 -0.006000 -0.006000 0.000000 -0.006000 -0.006000 0.000000 -0.006000 0.000000 0.000000 -0.006000 0.000000 0.000000 -0.006000 0.006000 0.000000 -0.006000 0.006000 0.000000 -0.006000 0.006000 0.000000 -0.006000 0.006000 0.000000 -0.006000 0.006000 0.000000 -0.006000 0.006000 0.000000 -0.006000 0.006000 0.000000 -0.012000 0.006000 0.000000 -0.006000 0.009000 0.000000 -0.006000 -0.009000 0.000000 -0.006000 -0.006000 0.000000 -0.006000 -0.006000 0.000000 -0.006000 -0.006000 0.000000 -0.006000 -0.006000 0.000000 -0.006000 -0.006000 0.000000 -0.006000 -0.006000 0.000000 -0.006000 -0.006000 0.000000 -0.006000 -0.006000 0.000000 -0.006000 0.000000 0.000000 -0.006000 0.000000 0.000000 -0.006000 0.006000 0.000000 -0.006000 0.006000 0.000000 -0.006000 0.006000 0.000000 -0.006000 0.006000 0.000000 -0.006000 0.006000 0.000000 -0.006000 0.006000 0.000000 -0.006000 0.006000 0.000000 -0.006000 0.006000 0.000000 -0.006000 0.009000 0.000000 -0.006000 -0.009000 0.000000 -0.006000 -0.006000 0.000000 -0.006000 -0.006000 0.000000 -0.006000 -0.006000 0.000000 -0.006000 -0.006000 0.000000 -0.006000 -0.006000 0.000000 -0.006000 -0.006000 0.000000 -0.006000 -0.006000 0.000000 -0.006000 -0.006000 0.000000 -0.006000 0.000000 0.000000 -0.006000 0.000000 0.000000 -0.006000 0.006000 0.000000 -0.006000 0.006000 0.000000 -0.006000 0.006000 0.000000 -0.006000 0.006000 0.000000 -0.006000 0.006000 0.000000 -0.006000 0.006000 0.000000 -0.006000 0.006000 0.000000 -0.015000 0.006000 0.000000 -0.006000 0.009000 0.000000 -0.006000 -0.009000 0.000000 -0.006000 -0.006000 0.000000 -0.006000 -0.006000 0.000000 -0.006000 -0.006000 0.000000 -0.006000 -0.006000 0.000000 -0.006000 -0.006000 0.000000 -0.006000 -0.006000 0.000000 -0.006000 -0.006000 0.000000 -0.006000 -0.006000 0.000000 -0.006000 0.000000 0.000000 -0.006000 0.000000 0.000000 -0.006000 0.006000 0.000000 -0.006000 0.006000 0.000000 -0.006000 0.006000 0.000000 -0.006000 0.006000 0.000000 -0.006000 0.006000 0.000000 -0.006000 0.006000 0.000000 -0.006000 0.006000 0.000000 -0.012000 0.006000 0.000000 -0.006000 0.009000 0.000000 -0.006000 -0.009000 0.000000 -0.006000 -0.006000 0.000000 -0.006000 -0.006000 0.000000 -0.006000 -0.006000 0.000000 -0.006000 -0.006000 0.000000 -0.006000 -0.006000 0.000000 -0.006000 -0.006000 0.000000 -0.006000 -0.006000 0.000000 -0.006000 -0.006000 0.000000 -0.006000 0.000000 0.000000 -0.006000 0.000000 0.000000 -0.006000 0.006000 0.000000 -0.006000 0.006000 0.000000 -0.006000 0.006000 0.000000 -0.006000 0.006000 0.000000 -0.006000 0.006000 0.000000 -0.006000 0.006000 0.000000 -0.006000 0.006000 0.000000 -0.009000 0.006000 0.000000 -0.006000 0.009000 0.000000 -0.006000 -0.009000 0.000000 -0.006000 -0.006000 0.000000 -0.006000 -0.006000 0.000000 -0.006000 -0.006000 0.000000 -0.006000 -0.006000 0.000000 -0.006000 -0.006000 0.000000 -0.006000 -0.006000 0.000000 -0.006000 -0.006000 0.000000 -0.006000 -0.006000 0.000000 -0.006000 0.000000 0.000000 -0.006000 0.000000 0.000000 -0.006000 0.006000 0.000000 -0.006000 0.006000 0.000000 -0.006000 0.006000 0.000000 -0.006000 0.006000 0.000000 -0.006000 0.006000 0.000000 -0.006000 0.006000 0.000000 -0.006000 0.006000 0.000000 0.000000 0.006000 0.000000 -0.006000 0.009000 0.000000 -0.006000 -0.009000 0.000000 -0.006000 -0.006000 0.000000 -0.006000 -0.006000 0.000000 -0.006000 -0.006000 0.000000 -0.006000 -0.006000 0.000000 -0.006000 -0.006000 0.000000 -0.006000 -0.006000 0.000000 -0.006000 -0.006000 0.000000 -0.006000 -0.006000 0.000000 -0.006000 0.000000 0.000000 -0.006000 0.000000 0.000000 -0.006000 0.006000 0.000000 -0.006000 0.006000 0.000000 -0.006000 0.006000 0.000000 -0.006000 0.006000 0.000000 -0.006000 0.006000 0.000000 -0.006000 0.006000 0.000000 -0.006000 0.006000 0.000000 -0.006000 0.006000 0.000000 -0.006000 0.009000 0.000000 -0.006000 -0.009000 0.000000 -0.006000 -0.006000 0.000000 -0.006000 -0.006000 0.000000 -0.006000 -0.006000 0.000000 -0.006000 -0.006000 0.000000 -0.006000 -0.006000 0.000000 -0.006000 -0.006000 0.000000 -0.006000 -0.006000 0.000000 -0.006000 -0.006000 0.000000 -0.006000 0.000000 0.000000 -0.006000 0.000000 0.000000 -0.006000 0.006000 0.000000 -0.006000 0.006000 0.000000 -0.006000 0.006000 0.000000 -0.006000 0.006000 0.000000 -0.006000 0.006000 0.000000 -0.006000 0.006000 0.000000 -0.006000 0.006000 0.000000 -0.006000 0.006000 0.000000 -0.006000 0.009000 0.000000 -0.006000 -0.009000 0.000000 -0.006000 -0.006000 0.000000 -0.006000 -0.006000 0.000000 -0.006000 -0.006000 0.000000 -0.006000 -0.006000 0.000000 -0.006000 -0.006000 0.000000 -0.006000 -0.006000 0.000000 -0.006000 -0.006000 0.000000 -0.006000 -0.006000 0.000000 -0.006000 0.000000 0.000000 -0.006000 0.000000 0.000000 -0.006000 0.006000 0.000000 -0.006000 0.006000 0.000000 -0.006000 0.006000 0.000000 -0.006000 0.006000 0.000000 -0.006000 0.006000 0.000000 -0.006000 0.006000 0.000000 -0.006000 0.006000 0.000000 -0.006000 0.006000 0.000000 -0.006000 0.009000 0.000000 -0.006000 -0.009000 0.000000 -0.006000 -0.006000 0.000000 -0.006000 -0.006000 0.000000 -0.006000 -0.006000 0.000000 -0.006000 -0.006000 0.000000 -0.006000 -0.006000 0.000000 -0.006000 -0.006000 0.000000 -0.006000 -0.006000 0.000000 -0.006000 -0.006000 0.000000 -0.006000 0.000000 0.000000 -0.006000 0.000000 0.000000 -0.006000 0.006000 0.000000 -0.006000 0.006000 0.000000 -0.006000 0.006000 0.000000 -0.006000 0.006000 0.000000 -0.006000 0.006000 0.000000 -0.006000 0.006000 0.000000 -0.006000 0.006000 0.000000 0.006000 0.006000 0.000000 -0.006000 0.009000 0.000000 -0.006000 -0.009000 0.000000 -0.006000 -0.006000 0.000000 -0.006000 -0.006000 0.000000 -0.006000 -0.006000 0.000000 -0.006000 -0.006000 0.000000 -0.006000 -0.006000 0.000000 -0.006000 -0.006000 0.000000 -0.006000 -0.006000 0.000000 -0.006000 -0.006000 0.000000 -0.006000 0.000000 0.000000 -0.006000 0.000000 0.000000 -0.006000 0.006000 0.000000 -0.006000 0.006000 0.000000 -0.006000 0.006000 0.000000 -0.006000 0.006000 0.000000 -0.006000 0.006000 0.000000 -0.006000 0.006000 0.000000 -0.006000 0.006000 0.000000 0.012000 0.006000 0.000000 -0.006000 0.009000 0.000000 -0.006000 -0.009000 0.000000 -0.006000 -0.006000 0.000000 -0.006000 -0.006000 0.000000 -0.006000 -0.006000 0.000000 -0.006000 -0.006000 0.000000 -0.006000 -0.006000 0.000000 -0.006000 -0.006000 0.000000 -0.006000 -0.006000 0.000000 -0.006000 -0.006000 0.000000 -0.006000 0.000000 0.000000 -0.006000 0.000000 0.000000 -0.006000 0.006000 0.000000 -0.006000 0.006000 0.000000 -0.006000 0.006000 0.000000 -0.006000 0.006000 0.000000 -0.006000 0.006000 0.000000 -0.006000 0.006000 0.000000 -0.006000 0.006000 0.000000 0.000000 0.006000 0.000000 -0.006000 0.009000 0.000000 -0.006000 -0.009000 0.000000 -0.006000 -0.006000 0.000000 -0.006000 -0.006000 0.000000 -0.006000 -0.006000 0.000000 -0.006000 -0.006000 0.000000 -0.006000 -0.006000 0.000000 -0.006000 -0.006000 0.000000 -0.006000 -0.006000 0.000000 -0.006000 -0.006000 0.000000 -0.006000 0.000000 0.000000 -0.006000 0.000000 0.000000 -0.006000 0.006000 0.000000 -0.006000 0.006000 0.000000 -0.006000 0.006000 0.000000 -0.006000 0.006000 0.000000 -0.006000 0.006000 0.000000 -0.006000 0.006000 0.000000 -0.006000 0.006000 0.000000 0.000000 0.006000 0.000000 0.000000 0.009000 0.000000 -0.006000 -0.009000 0.000000 -0.006000 -0.006000 0.000000 -0.006000 -0.006000 0.000000 -0.006000 -0.006000 0.000000 -0.006000 -0.006000 0.000000 -0.006000 -0.006000 0.000000 -0.006000 -0.006000 0.000000 -0.006000 -0.006000 0.000000 -0.006000 -0.006000 0.000000 -0.006000 0.000000 0.000000 -0.000000 0.000000 0.000000 -0.006000 0.006000 0.000000 -0.006000 0.006000 0.000000 -0.006000 0.006000 0.000000 -0.006000 0.006000 0.000000 -0.006000 0.006000 0.000000 -0.006000 0.006000 0.000000 -0.006000 0.006000 0.000000 0.000000 0.006000 0.000000 -0.000000 0.009000 0.000000 -0.006000 -0.009000 0.000000 -0.006000 -0.006000 0.000000 -0.006000 -0.006000 0.000000 -0.006000 -0.006000 0.000000 -0.006000 -0.006000 0.000000 -0.006000 -0.006000 0.000000 -0.006000 -0.006000 0.000000 -0.006000 -0.006000 0.000000 -0.006000 -0.006000 0.000000 -0.006000 0.000000 0.000000 -0.000000 -0.000000 0.000000 -0.006000 0.006000 0.000000 -0.006000 0.006000 0.000000 -0.006000 0.006000 0.000000 -0.006000 0.006000 0.000000 -0.006000 0.006000 0.000000 -0.006000 0.006000 0.000000 -0.006000 0.006000 0.000000 -0.000000 0.006000 0.000000 -0.000000 0.009000 0.000000 -0.006000 -0.009000 0.000000 -0.006000 -0.006000 0.000000 -0.006000 -0.006000 0.000000 -0.006000 -0.005980 0.000000 -0.006000 -0.005980 0.000000 -0.006000 -0.006000 0.000000 -0.006000 -0.006000 0.000000 -0.006000 -0.005993 0.000000 -0.000000 -0.005978 0.000000 -0.006000 0.000000 0.000000 0.000000 0.000117 0.000000 -0.006000 0.006000 0.000000 -0.006000 0.006000 0.000000 -0.006000 0.006000 0.000000 -0.006000 0.006000 0.000000 -0.006000 0.006000 0.000000 -0.006000 0.006000 0.000000 -0.006000 0.006000 0.000000 0.000001 0.006295 0.000000 0.000000 0.009155 0.000000 -0.006000 -0.189003 0.000000 -0.006000 -0.174002 0.000000 -0.006000 -0.191996 0.000000 -0.006001 -0.195025 0.000000 -0.006002 -0.195017 0.000000 -0.005998 -0.186002 0.000000 -0.005998 -0.213006 0.000000 -0.006019 -0.198011 0.000000 0.000037 -0.240640 0.000000 -0.006053 -0.095396 0.000000 0.000068 -0.102211 0.000000 -0.006035 -0.114116 0.000000 -0.006000 -0.131799 0.000000 -0.006000 -0.138239 0.000000 -0.006000 -0.161824 0.000000 -0.006000 -0.192065 0.000000 -0.006000 -0.221975 0.000000 -0.006009 -0.246272 0.000000 -0.000257 -1.242911 0.000000 0.000642 -8.619041 0.000000 -0.006000 -0.183002 0.000000 -0.006000 -0.180000 0.000000 -0.006000 -0.228000 0.000000 -0.006001 -0.174001 0.000000 -0.006002 -0.173997 0.000000 -0.005998 -0.159002 0.000000 -0.005998 -0.189007 0.000000 -0.006021 -0.242995 0.000000 0.000042 -0.222602 0.000000 -0.006059 -0.089434 0.000000 0.000075 -0.108055 0.000000 -0.006039 -0.114121 0.000000 -0.006000 -0.131807 0.000000 -0.006000 -0.138229 0.000000 -0.006000 -0.161830 0.000000 -0.006000 -0.192062 0.000000 -0.006000 -0.221977 0.000000 -0.006010 -0.246272 0.000000 -0.000343 -1.276049 0.000000 0.001772 -8.730800 0.000000 -0.006000 -0.189002 0.000000 -0.006000 -0.180001 0.000000 -0.006000 -0.191998 0.000000 -0.006001 -0.201005 0.000000 -0.000001 -0.188997 0.000000 -0.005998 -0.152999 0.000000 -0.006004 -0.216004 0.000000 -0.000008 -0.216006 0.000000 0.000037 -0.222601 0.000000 -0.006063 -0.089433 0.000000 0.000078 -0.108058 0.000000 -0.006040 -0.114124 0.000000 -0.006000 -0.131805 0.000000 -0.006000 -0.138231 0.000000 -0.006000 -0.161828 0.000000 -0.006000 -0.192063 0.000000 -0.006000 -0.221976 0.000000 -0.006012 -0.246251 0.000000 -0.000334 -1.103726 0.000000 0.001670 -8.683397 0.000000 -0.006000 -0.189004 0.000000 -0.006000 -0.197997 0.000000 -0.006001 -0.210000 0.000000 -0.000000 -0.167999 0.000000 -0.000635 -0.156001 0.000000 0.000673 -0.183002 0.000000 -0.005180 -0.216005 0.000000 -0.000862 -0.198000 0.000000 0.000033 -0.234607 0.000000 -0.006079 -0.089428 0.000000 0.000106 -0.108057 0.000000 -0.006054 -0.114121 0.000000 -0.006000 -0.131807 0.000000 -0.006000 -0.138229 0.000000 -0.006000 -0.161830 0.000000 -0.006000 -0.192062 0.000000 -0.006000 -0.221977 0.000000 -0.006013 -0.246272 0.000000 0.011635 -1.276056 0.000000 0.001778 -8.730804 0.000000 -0.006000 -0.189004 0.000000 -0.006000 -0.197997 0.000000 -0.006001 -0.210000 0.000000 -0.000004 -0.167999 0.000000 -0.000626 -0.156001 0.000000 -0.005332 -0.183002 0.000000 0.000820 -0.216005 0.000000 -0.000865 -0.198000 0.000000 0.000043 -0.234607 0.000000 -0.006090 -0.089428 0.000000 0.006114 -0.108058 0.000000 -0.006058 -0.114121 0.000000 -0.006000 -0.131807 0.000000 -0.006000 -0.138229 0.000000 -0.006000 -0.161830 0.000000 -0.006000 -0.192062 0.000000 -0.006000 -0.221977 0.000000 -0.006014 -0.