<VTKFile type="UnstructuredGrid" version="0.1" byte_order="LittleEndian">
  <UnstructuredGrid>
    <Piece NumberOfPoints="2000" NumberOfCells="0">
      <Points>
        <DataArray name="Position" type="Float32" NumberOfComponents="3" format="ascii">
-0.005259 -0.003158 0.000000 -0.005259 0.997895 0.000000 -0.005259 1.997895 0.000000 -0.005259 2.997895 0.000000 -0.007197 3.997896 0.000000 -0.007331 4.997896 0.000000 -0.007316 5.997896 0.000000 -0.007352 6.997896 0.000000 -0.005250 7.997897 0.000000 -0.007351 9.000000 0.000000 -0.005246 10.000001 0.000000 -0.005245 11.002103 0.000000 -0.005247 12.002104 0.000000 -0.005247 13.002104 0.000000 -0.005247 14.002104 0.000000 -0.005241 15.002104 0.000000 -0.005241 16.002105 0.000000 -0.005241 17.002105 0.000000 -0.005241 18.002105 0.000000 -0.014755 19.003158 0.000000 0.997892 -0.003158 0.000000 0.997892 0.997895 0.000000 0.995428 1.997895 0.000000 0.995164 2.997895 0.000000 0.995150 3.997896 0.000000 0.993728 4.997896 0.000000 0.993798 5.997896 0.000000 0.995146 6.997896 0.000000 0.995129 7.997897 0.000000 0.995397 9.000000 0.000000 0.995095 10.000001 0.000000 0.995351 11.002103 0.000000 0.997409 12.002104 0.000000 0.997886 13.002104 0.000000 0.997886 14.002104 0.000000 0.997883 15.002104 0.000000 0.997883 16.002105 0.000000 0.995240 17.002105 0.000000 0.995156 18.002105 0.000000 0.985469 19.003158 0.000000 1.997895 -0.003158 0.000000 1.997895 0.997895 0.000000 1.997891 1.997895 0.000000 1.995168 2.997895 0.000000 1.995185 3.997896 0.000000 1.995596 4.997896 0.000000 1.995453 5.997896 0.000000 1.995176 6.997896 0.000000 1.995130 7.997897 0.000000 1.995418 9.000000 0.000000 1.995120 10.000001 0.000000 1.995381 11.002103 0.000000 1.997431 12.002104 0.000000 1.997895 13.002104 0.000000 1.997895 14.002104 0.000000 1.997895 15.002104 0.000000 1.997895 16.002105 0.000000 1.995244 17.002105 0.000000 1.995166 18.002105 0.000000 1.985471 19.003158 0.000000 2.997895 -0.003158 0.000000 2.997895 0.997529 0.000000 2.997895 1.997894 0.000000 2.995173 2.997893 0.000000 2.995203 3.997895 0.000000 2.995607 4.997895 0.000000 2.995780 5.997896 0.000000 2.995795 6.997897 0.000000 2.995132 7.998266 0.000000 2.995622 9.000000 0.000000 2.995124 10.000001 0.000000 2.995403 11.002103 0.000000 2.997431 12.002104 0.000000 2.997895 13.002104 0.000000 2.997895 14.002104 0.000000 2.997895 15.002104 0.000000 2.997895 16.002105 0.000000 2.995483 17.002105 0.000000 2.995183 18.002105 0.000000 2.985602 19.003154 0.000000 3.997895 -0.003647 0.000000 3.997895 0.996703 0.000000 3.997895 1.996859 0.000000 3.995241 2.996942 0.000000 3.995711 3.997085 0.000000 3.995786 4.998860 0.000000 3.995796 5.998947 0.000000 3.995799 6.999096 0.000000 3.995132 7.999194 0.000000 3.995795 9.000003 0.000000 3.995143 10.000009 0.000000 3.995426 11.000904 0.000000 3.997651 12.002104 0.000000 3.997895 13.002104 0.000000 3.997895 14.002104 0.000000 3.997895 15.002105 0.000000 3.997895 16.002105 0.000000 3.995505 17.002106 0.000000 3.995190 18.003005 0.000000 3.985612 19.003474 0.000000 4.997896 -0.011483 0.000000 4.997896 0.992235 0.000000 4.997894 1.993672 0.000000 4.997889 2.995144 0.000000 4.996936 3.995773 0.000000 4.995798 4.995791 0.000000 4.995798 5.995799 0.000000 4.995800 6.995803 0.000000 4.995169 7.996527 0.000000 4.995797 8.997888 0.000000 4.995145 9.999237 0.000000 4.995426 10.999981 0.000000 4.997651 12.002104 0.000000 4.997896 13.002104 0.000000 4.997896 14.002104 0.000000 4.997896 15.002104 0.000000 4.997896 16.002105 0.000000 4.995513 17.002105 0.000000 4.995211 18.002105 0.000000 4.985769 19.003152 0.000000 5.997897 -0.005252 0.000000 5.997897 0.995830 0.000000 5.997897 1.996598 0.000000 5.997897 2.996939 0.000000 5.997094 3.997898 0.000000 5.995802 4.998714 0.000000 5.995829 5.998866 0.000000 5.997543 6.999198 0.000000 5.996510 7.999981 0.000000 5.995799 9.000006 0.000000 5.995160 10.000972 0.000000 5.995486 11.001306 0.000000 5.997659 12.002104 0.000000 5.997896 13.002104 0.000000 5.997896 14.002104 0.000000 5.997896 15.002105 0.000000 5.997896 16.002105 0.000000 5.995570 17.002106 0.000000 5.995212 18.003076 0.000000 5.986151 19.003327 0.000000 6.997897 -0.003697 0.000000 6.997897 0.996662 0.000000 6.997897 1.997111 0.000000 6.997897 2.997518 0.000000 6.997698 3.997895 0.000000 6.995985 4.997894 0.000000 6.995838 5.998275 0.000000 6.997886 6.999123 0.000000 6.996516 7.999212 0.000000 6.997886 8.999999 0.000000 6.996494 10.000001 0.000000 6.996621 11.002103 0.000000 6.997669 12.002104 0.000000 6.997896 13.002104 0.000000 6.997896 14.002104 0.000000 6.997896 15.002104 0.000000 6.997896 16.002105 0.000000 6.995618 17.002105 0.000000 6.995212 18.002105 0.000000 6.986194 19.003158 0.000000 7.997897 -0.003158 0.000000 7.997897 0.997862 0.000000 7.997897 1.997894 0.000000 7.997897 2.997895 0.000000 7.997899 3.997895 0.000000 7.997886 4.997895 0.000000 7.997886 5.997896 0.000000 7.997891 6.997898 0.000000 7.996519 7.997929 0.000000 7.997892 8.999999 0.000000 7.996502 10.000001 0.000000 7.996632 11.002103 0.000000 7.997884 12.002104 0.000000 7.997896 13.002104 0.000000 7.997896 14.002104 0.000000 7.997896 15.002104 0.000000 7.997896 16.002105 0.000000 7.995662 17.002105 0.000000 7.995216 18.002105 0.000000 7.986222 19.003158 0.000000 8.997897 -0.003158 0.000000 8.997897 0.997895 0.000000 8.997897 1.997895 0.000000 8.997897 2.997895 0.000000 8.997899 3.997896 0.000000 8.997893 4.997896 0.000000 8.997893 5.997896 0.000000 8.997892 6.997896 0.000000 8.996523 7.997897 0.000000 8.997893 9.000000 0.000000 8.996507 10.000001 0.000000 8.996636 11.002103 0.000000 8.997895 12.002104 0.000000 8.997897 13.002104 0.000000 8.997897 14.002104 0.000000 8.997897 15.002104 0.000000 8.997897 16.002105 0.000000 8.995664 17.002105 0.000000 8.995246 18.002105 0.000000 8.986253 19.003158 0.000000 9.997898 -0.003158 0.000000 9.997898 0.997895 0.000000 9.997898 1.997895 0.000000 9.997898 2.997895 0.000000 9.997899 3.997896 0.000000 9.997894 4.997896 0.000000 9.997895 5.997896 0.000000 9.997893 6.997896 0.000000 9.997884 7.997897 0.000000 9.997893 9.000000 0.000000 9.996509 10.000001 0.000000 9.996638 11.002103 0.000000 9.997895 12.002104 0.000000 9.997897 13.002104 0.000000 9.997897 14.002104 0.000000 9.997897 15.002104 0.000000 9.997897 16.002105 0.000000 9.995682 17.002105 0.000000 9.996530 18.002105 0.000000 9.986257 19.003158 0.000000 10.997898 -0.003158 0.000000 10.997898 0.997895 0.000000 10.997898 1.997895 0.000000 10.997898 2.997895 0.000000 10.997900 3.997896 0.000000 10.997901 4.997896 0.000000 10.997901 5.997896 0.000000 10.997899 6.997896 0.000000 10.997899 7.997897 0.000000 10.997899 9.000000 0.000000 10.996509 10.000001 0.000000 10.996647 11.002103 0.000000 10.997896 12.002104 0.000000 10.997897 13.002104 0.000000 10.997897 14.002104 0.000000 10.997897 15.002104 0.000000 10.997897 16.002105 0.000000 10.995699 17.002105 0.000000 10.996531 18.002105 0.000000 10.986279 19.003158 0.000000 11.997898 -0.003158 0.000000 11.997898 0.997895 0.000000 11.997898 1.997895 0.000000 11.997898 2.997895 0.000000 11.997900 3.997896 0.000000 11.997901 4.997896 0.000000 11.997901 5.997896 0.000000 11.997899 6.997896 0.000000 11.997899 7.997897 0.000000 11.997899 9.000000 0.000000 11.996511 10.000001 0.000000 11.996649 11.002103 0.000000 11.997896 12.002104 0.000000 11.997898 13.002104 0.000000 11.997898 14.002104 0.000000 11.997898 15.002104 0.000000 11.997898 16.002105 0.000000 11.995708 17.002105 0.000000 11.996538 18.002105 0.000000 11.986446 19.003158 0.000000 12.997899 -0.003158 0.000000 12.997899 0.997895 0.000000 12.997899 1.997895 0.000000 12.997899 2.997895 0.000000 12.997900 3.997896 0.000000 12.997901 4.997896 0.000000 12.997901 5.997896 0.000000 12.997900 6.997896 0.000000 12.997900 7.997897 0.000000 12.997900 9.000000 0.000000 12.997882 10.000001 0.000000 12.997880 11.002103 0.000000 12.997896 12.002104 0.000000 12.997898 13.002104 0.000000 12.997898 14.002104 0.000000 12.997898 15.002104 0.000000 12.997898 16.002105 0.000000 12.995702 17.002105 0.000000 12.996540 18.002105 0.000000 12.986647 19.003158 0.000000 13.997899 -0.003158 0.000000 13.997899 0.997895 0.000000 13.997899 1.997895 0.000000 13.997899 2.997895 0.000000 13.997901 3.997896 0.000000 13.997901 4.997896 0.000000 13.997901 5.997896 0.000000 13.997900 6.997896 0.000000 13.997900 7.997897 0.000000 13.997900 9.000000 0.000000 13.997892 10.000001 0.000000 13.997890 11.002103 0.000000 13.997896 12.002104 0.000000 13.997898 13.002104 0.000000 13.997898 14.002104 0.000000 13.997898 15.002104 0.000000 13.997898 16.002105 0.000000 13.995695 17.002105 0.000000 13.996542 18.002105 0.000000 13.986643 19.003158 0.000000 14.997899 -0.003158 0.000000 14.997899 0.997895 0.000000 14.997899 1.997895 0.000000 14.997899 2.997895 0.000000 14.997901 3.997896 0.000000 14.997902 4.997896 0.000000 14.997902 5.997896 0.000000 14.997900 6.997896 0.000000 14.997900 7.997897 0.000000 14.997900 9.000000 0.000000 14.997892 10.000001 0.000000 14.997892 11.002103 0.000000 14.997900 12.002104 0.000000 14.997899 13.002104 0.000000 14.997899 14.002104 0.000000 14.997899 15.002104 0.000000 14.997899 16.002105 0.000000 14.995703 17.002105 0.000000 14.996544 18.002105 0.000000 14.986629 19.003158 0.000000 15.997899 -0.003158 0.000000 15.997899 0.997895 0.000000 15.997899 1.997895 0.000000 15.997899 2.997895 0.000000 15.997901 3.997896 0.000000 15.997902 4.997896 0.000000 15.997902 5.997896 0.000000 15.997901 6.997896 0.000000 15.997901 7.997897 0.000000 15.997901 9.000000 0.000000 15.997895 10.000001 0.000000 15.997895 11.002103 0.000000 15.997902 12.002104 0.000000 15.997900 13.002104 0.000000 15.997900 14.002104 0.000000 15.997899 15.002104 0.000000 15.997899 16.002105 0.000000 15.995724 17.002105 0.000000 15.996569 18.002105 0.000000 15.986656 19.003158 0.000000 16.997900 -0.003158 0.000000 16.997900 0.997895 0.000000 16.997900 1.997895 0.000000 16.997900 2.997895 0.000000 16.997902 3.997896 0.000000 16.997902 4.997896 0.000000 16.997902 5.997896 0.000000 16.997901 6.997896 0.000000 16.997901 7.997897
[...]
      <PointData Vectors="vector">
        <DataArray type="Float32" Name="Velocity" NumberOfComponents="3" format="ascii">
-0.015000 -0.009000 0.000000 -0.015000 -0.006000 0.000000 -0.015000 -0.006000 0.000000 -0.015000 -0.006000 0.000000 -0.021000 -0.006000 0.000000 -0.021000 -0.006000 0.000000 -0.021000 -0.006000 0.000000 -0.021000 -0.006000 0.000000 -0.015000 -0.006000 0.000000 -0.021000 0.000000 0.000000 -0.015000 0.000000 0.000000 -0.015000 0.006000 0.000000 -0.015000 0.006000 0.000000 -0.015000 0.006000 0.000000 -0.015000 0.006000 0.000000 -0.015000 0.006000 0.000000 -0.015000 0.006000 0.000000 -0.015000 0.006000 0.000000 -0.015000 0.006000 0.000000 -0.339004 0.009000 0.000000 -0.006000 -0.009000 0.000000 -0.006000 -0.006000 0.000000 -0.018000 -0.006000 0.000000 -0.018000 -0.006000 0.000000 -0.018000 -0.006000 0.000000 -0.018000 -0.006000 0.000000 -0.018000 -0.006000 0.000000 -0.018000 -0.006000 0.000000 -0.018000 -0.006000 0.000000 -0.018000 0.000000 0.000000 -0.018000 0.000000 0.000000 -0.018000 0.006000 0.000000 -0.018000 0.006000 0.000000 -0.006000 0.006000 0.000000 -0.006000 0.006000 0.000000 -0.006000 0.006000 0.000000 -0.006000 0.006000 0.000000 -0.156001 0.006000 0.000000 -0.018000 0.006000 0.000000 -0.306012 0.009000 0.000000 -0.006000 -0.009000 0.000000 -0.006000 -0.006000 0.000000 -0.006000 -0.006000 0.000000 -0.018000 -0.006000 0.000000 -0.018000 -0.006000 0.000000 -0.018000 -0.006000 0.000000 -0.018000 -0.006000 0.000000 -0.018000 -0.006000 0.000000 -0.018000 -0.006000 0.000000 -0.018000 0.000000 0.000000 -0.018000 0.000000 0.000000 -0.018000 0.006000 0.000000 -0.018000 0.006000 0.000000 -0.006000 0.006000 0.000000 -0.006000 0.006000 0.000000 -0.006000 0.006000 0.000000 -0.006000 0.006000 0.000000 -0.198003 0.006000 0.000000 -0.018000 0.006000 0.000000 -0.377993 0.009001 0.000000 -0.006000 -0.009000 0.000000 -0.006000 -0.012000 0.000000 -0.005988 -0.006000 0.000000 -0.018012 -0.006000 0.000000 -0.018001 -0.005997 0.000000 -0.017999 -0.006009 0.000000 -0.012000 -0.006004 0.000000 -0.011998 -0.006007 0.000000 -0.018002 0.000000 0.000000 -0.018000 -0.000000 0.000000 -0.018000 -0.000000 0.000000 -0.018000 0.006000 0.000000 -0.018000 0.006000 0.000000 -0.006000 0.006000 0.000000 -0.006000 0.006000 0.000000 -0.006000 0.006000 0.000000 -0.006000 0.006000 0.000000 -0.155999 0.006000 0.000000 -0.018000 0.006000 0.000000 -0.396010 0.008809 0.000000 -0.006000 -0.015000 0.000000 -0.006000 -0.012000 0.000000 -0.005985 -0.011979 0.000000 -0.018016 -0.011929 0.000000 -0.011986 -0.005975 0.000000 -0.012013 0.000042 0.000000 -0.012007 0.000020 0.000000 -0.011993 0.000027 0.000000 -0.018000 0.000000 0.000000 -0.012000 0.000032 0.000000 -0.018000 0.000034 0.000000 -0.018000 0.000041 0.000000 -0.012000 0.006000 0.000000 -0.006000 0.006000 0.000000 -0.006000 0.006000 0.000000 -0.006000 0.006000 0.000000 -0.006000 0.006000 0.000000 -0.179997 0.006001 0.000000 -0.018001 0.006000 0.000000 -0.300049 0.015411 0.000000 -0.006000 -0.033000 0.000000 -0.006000 -0.030000 0.000000 -0.006000 -0.018020 0.000000 -0.006000 -0.006071 0.000000 -0.012000 -0.012035 0.000000 -0.012001 -0.012065 0.000000 -0.012000 -0.012031 0.000000 -0.012000 -0.012055 0.000000 -0.018000 -0.012044 0.000000 -0.012000 -0.006065 0.000000 -0.018000 -0.000078 0.000000 -0.018000 -0.000092 0.000000 -0.012000 0.006000 0.000000 -0.006000 0.006000 0.000000 -0.006000 0.006000 0.000000 -0.006000 0.006000 0.000000 -0.006000 0.006000 0.000000 -0.168003 0.005999 0.000000 -0.018000 0.006000 0.000000 -0.306107 0.008740 0.000000 -0.006000 -0.015000 0.000000 -0.006000 -0.012000 0.000000 -0.006000 -0.011981 0.000000 -0.006000 -0.011929 0.000000 -0.011988 -0.005958 0.000000 -0.012012 -0.005958 0.000000 -0.012009 0.000021 0.000000 -0.017990 0.000051 0.000000 -0.012001 0.000091 0.000000 -0.011999 0.000033 0.000000 -0.018003 0.000043 0.000000 -0.017999 0.006051 0.000000 -0.011999 0.006000 0.000000 -0.006000 0.006000 0.000000 -0.006000 0.006000 0.000000 -0.006000 0.006000 0.000000 -0.006000 0.006000 0.000000 -0.161997 0.006001 0.000000 -0.017992 0.006000 0.000000 -0.275968 0.015078 0.000000 -0.006000 -0.015000 0.000000 -0.006000 -0.012000 0.000000 -0.006000 -0.005999 0.000000 -0.006000 -0.012000 0.000000 -0.011991 -0.006000 0.000000 -0.006009 -0.006009 0.000000 -0.012001 -0.000005 0.000000 -0.006000 -0.000005 0.000000 -0.012000 -0.000048 0.000000 -0.006000 -0.000000 0.000000 -0.012000 -0.000000 0.000000 -0.012000 0.006000 0.000000 -0.012000 0.006000 0.000000 -0.006000 0.006000 0.000000 -0.006000 0.006000 0.000000 -0.006000 0.006000 0.000000 -0.006000 0.006000 0.000000 -0.120003 0.005999 0.000000 -0.018000 0.006000 0.000000 -0.311918 0.008962 0.000000 -0.006000 -0.009000 0.000000 -0.006000 -0.012000 0.000000 -0.006000 -0.006000 0.000000 -0.006000 -0.006000 0.000000 -0.006000 -0.006000 0.000000 -0.006000 -0.006000 0.000000 -0.006000 -0.006000 0.000000 -0.005992 -0.006013 0.000000 -0.012008 0.000000 0.000000 -0.006000 0.000000 0.000000 -0.012000 0.000000 0.000000 -0.012000 0.006000 0.000000 -0.006000 0.006000 0.000000 -0.006000 0.006000 0.000000 -0.006000 0.006000 0.000000 -0.006000 0.006000 0.000000 -0.006000 0.006000 0.000000 -0.162006 0.006000 0.000000 -0.018000 0.006000 0.000000 -0.288106 0.009000 0.000000 -0.006000 -0.009000 0.000000 -0.006000 -0.006000 0.000000 -0.006000 -0.006000 0.000000 -0.006000 -0.006000 0.000000 -0.006000 -0.006000 0.000000 -0.006000 -0.006000 0.000000 -0.006000 -0.006000 0.000000 -0.006000 -0.006000 0.000000 -0.012000 -0.006000 0.000000 -0.006000 0.000000 0.000000 -0.012000 0.000000 0.000000 -0.012000 0.006000 0.000000 -0.006000 0.006000 0.000000 -0.006000 0.006000 0.000000 -0.006000 0.006000 0.000000 -0.006000 0.006000 0.000000 -0.006000 0.006000 0.000000 -0.119998 0.006000 0.000000 -0.018000 0.006000 0.000000 -0.306051 0.009000 0.000000 -0.006000 -0.009000 0.000000 -0.006000 -0.006000 0.000000 -0.006000 -0.006000 0.000000 -0.006000 -0.006000 0.000000 -0.006000 -0.006000 0.000000 -0.006000 -0.006000 0.000000 -0.006000 -0.006000 0.000000 -0.006000 -0.006000 0.000000 -0.006000 -0.006000 0.000000 -0.006000 -0.000000 0.000000 -0.012000 0.000000 0.000000 -0.012000 0.006000 0.000000 -0.006000 0.006000 0.000000 -0.006000 0.006000 0.000000 -0.006000 0.006000 0.000000 -0.006000 0.006000 0.000000 -0.006000 0.006000 0.000000 -0.168006 0.006000 0.000000 -0.012000 0.006000 0.000000 -0.323855 0.009000 0.000000 -0.006000 -0.009000 0.000000 -0.006000 -0.006000 0.000000 -0.006000 -0.006000 0.000000 -0.006000 -0.006000 0.000000 -0.006000 -0.006000 0.000000 -0.006000 -0.006000 0.000000 -0.006000 -0.006000 0.000000 -0.006000 -0.006000 0.000000 -0.006000 -0.006000 0.000000 -0.006000 0.000000 0.000000 -0.012000 0.000000 0.000000 -0.012000 0.006000 0.000000 -0.006000 0.006000 0.000000 -0.006000 0.006000 0.000000 -0.006000 0.006000 0.000000 -0.006000 0.006000 0.000000 -0.006000 0.006000 0.000000 -0.150017 0.006000 0.000000 -0.012000 0.006000 0.000000 -0.252059 0.009000 0.000000 -0.006000 -0.009000 0.000000 -0.006000 -0.006000 0.000000 -0.006000 -0.006000 0.000000 -0.006000 -0.006000 0.000000 -0.006000 -0.006000 0.000000 -0.006000 -0.006000 0.000000 -0.006000 -0.006000 0.000000 -0.006000 -0.006000 0.000000 -0.006000 -0.006000 0.000000 -0.006000 0.000000 0.000000 -0.012000 0.000000 0.000000 -0.012000 0.006000 0.000000 -0.006000 0.006000 0.000000 -0.006000 0.006000 0.000000 -0.006000 0.006000 0.000000 -0.006000 0.006000 0.000000 -0.006000 0.006000 0.000000 -0.122988 0.006000 0.000000 -0.012000 0.006000 0.000000 -0.323997 0.009000 0.000000 -0.006000 -0.009000 0.000000 -0.006000 -0.006000 0.000000 -0.006000 -0.006000 0.000000 -0.006000 -0.006000 0.000000 -0.006000 -0.006000 0.000000 -0.006000 -0.006000 0.000000 -0.006000 -0.006000 0.000000 -0.006000 -0.006000 0.000000 -0.006000 -0.006000 0.000000 -0.006000 0.000000 0.000000 -0.006000 0.000000 0.000000 -0.006000 0.006000 0.000000 -0.006000 0.006000 0.000000 -0.006000 0.006000 0.000000 -0.006000 0.006000 0.000000 -0.006000 0.006000 0.000000 -0.006000 0.006000 0.000000 -0.162008 0.006000 0.000000 -0.012000 0.006000 0.000000 -0.279315 0.009000 0.000000 -0.006000 -0.009000 0.000000 -0.006000 -0.006000 0.000000 -0.006000 -0.006000 0.000000 -0.006000 -0.006000 0.000000 -0.006000 -0.006000 0.000000 -0.006000 -0.006000 0.000000 -0.006000 -0.006000 0.000000 -0.006000 -0.006000 0.000000 -0.006000 -0.006000 0.000000 -0.006000 0.000000 0.000000 -0.006000 0.000000 0.000000 -0.006000 0.006000 0.000000 -0.006000 0.006000 0.000000 -0.006000 0.006000 0.000000 -0.006000 0.006000 0.000000 -0.006000 0.006000 0.000000 -0.006000 0.006000 0.000000 -0.122979 0.006000 0.000000 -0.012000 0.006000 0.000000 -0.347880 0.009000 0.000000 -0.006000 -0.009000 0.000000 -0.006000 -0.006000 0.000000 -0.006000 -0.006000 0.000000 -0.006000 -0.006000 0.000000 -0.006000 -0.006000 0.000000 -0.006000 -0.006000 0.000000 -0.006000 -0.006000 0.000000 -0.006000 -0.006000 0.000000 -0.006000 -0.006000 0.000000 -0.006000 0.000000 0.000000 -0.006000 0.000000 0.000000 -0.006000 0.006000 0.000000 -0.006000 0.006000 0.000000 -0.006000 0.006000 0.000000 -0.006000 0.006000 0.000000 -0.006000 0.006000 0.000000 -0.006000 0.006000 0.000000 -0.138018 0.006000 0.000000 -0.012000 0.006000 0.000000 -0.303114 0.009000 0.000000 -0.006000 -0.009000 0.000000 -0.006000 -0.006000 0.000000 -0.006000 -0.006000 0.000000 -0.006000 -0.006000 0.000000 -0.006000 -0.006000 0.000000 -0.006000 -0.006000 0.000000 -0.006000 -0.006000 0.000000 -0.006000 -0.006000 0.000000 -0.006000 -0.006000 0.000000 -0.006000 0.000000 0.000000 -0.006000 0.000000 0.000000 -0.006000 0.006000 0.000000 -0.006000 0.006000 0.000000 -0.006000 0.006000 0.000000 -0.006000 0.006000 0.000000 -0.006000 0.006000 0.000000 -0.006000 0.006000 0.000000 -0.131979 0.006000 0.000000 -0.012000 0.006000 0.000000 -0.353876 0.009000 0.000000 -0.006000 -0.009000 0.000000 -0.006000 -0.006000 0.000000 -0.006000 -0.006000 0.000000 -0.006000 -0.006000 0.000000 -0.006000 -0.006000 0.000000 -0.006000 -0.006000 0.000000 -0.006000 -0.006000 0.000000 -0.006000 -0.006000 0.000000 -0.006000 -0.006000 0.000000 -0.006000 0.000000 0.000000 -0.006000 0.000000 0.000000 -0.006000 0.006000 0.000000 -0.006000 0.006000 0.000000 -0.006000 0.006000 0.000000 -0.006000 0.006000 0.000000 -0.006000 0.006000 0.000000 -0.006000 0.006000 0.000000 -0.171055 0.006000 0.000000 -0.012000 0.006000 0.000000 -0.398854 0.009000 0.000000 -0.006000 -0.009000 0.000000 -0.006000 -0.006000 0.000000 -0.006000 -0.006000 0.000000 -0.006000 -0.006000 0.000000 -0.006000 -0.006000 0.000000 -0.006000 -0.006000 0.000000 -0.006000 -0.006000 0.000000 -0.006000 -0.006000 0.000000 -0.006000 -0.006000 0.000000 -0.006000 0.000000 0.000000 -0.006000 0.000000 0.000000 -0.006000 0.006000 0.000000 -0.006000 0.006000 0.000000 -0.006000 0.006000 0.000000 -0.006000 0.006000 0.000000 -0.006000 0.006000 0.000000 -0.006000 0.006000 0.000000 -0.174008 0.006000 0.000000 -0.006000 0.006000 0.000000 -0.333490 0.009000 0.000000 -0.006000 -0.009000 0.000000 -0.006000 -0.006000 0.000000 -0.006000 -0.006000 0.000000 -0.009000 -0.006000 0.000000 -0.006000 -0.006000 0.000000 -0.006000 -0.006000 0.000000 -0.006000 -0.006000 0.000000 -0.006000 -0.006000 0.000000 -0.006000 -0.006000 0.000000 -0.006000 0.000000 0.000000 -0.006000 0.000000 0.000000 -0.006000 0.006000 0.000000 -0.006000 0.006000 0.000000 -0.006000 0.006000 0.000000 -0.006000 0.006000 0.000000 -0.006000 0.006000 0.000000 -0.006000 0.006000 0.000000 -0.122946 0.006000 0.000000 -0.006000 0.006000 0.000000 -0.317379 0.009000 0.000000 -0.006000 -0.009000 0.000000 -0.006000 -0.006000 0.000000 -0.006000 -0.006000 0.000000 -0.009000 -0.006000 0.000000 -0.006000 -0.006000 0.000000 -0.006000 -0.006000 0.000000 -0.006000 -0.006000 0.000000 -0.006000 -0.006000 0.000000 -0.006000 -0.006000 0.000000 -0.006000 0.000000 0.000000 -0.006000 0.000000 0.000000 -0.006000 0.006000 0.000000 -0.006000 0.006000 0.000000 -0.006000 0.006000 0.000000 -0.006000 0.006000 0.000000 -0.006000 0.006000 0.000000 -0.006000 0.006000 0.000000 -0.161999 0.006000 0.000000 -0.006000 0.006000 0.000000 -0.252004 0.009000 0.000000 -0.006000 -0.009000 0.000000 -0.006000 -0.006000 0.000000 -0.006000 -0.006000 0.000000 -0.006000 -0.006000 0.000000 -0.006000 -0.006000 0.000000 -0.006000 -0.006000 0.000000 -0.006000 -0.006000 0.000000 -0.006000 -0.006000 0.000000 -0.006000 -0.006000 0.000000 -0.006000 0.000000 0.000000 -0.006000 0.000000 0.000000 -0.006000 0.006000 0.000000 -0.006000 0.006000 0.000000 -0.006000 0.006000 0.000000 -0.006000 0.006000 0.000000 -0.006000 0.006000 0.000000 -0.006000 0.006000 0.000000 -0.171113 0.006000 0.000000 -0.006000 0.006000 0.000000 -0.300821 0.009000 0.000000 -0.006000 -0.009000 0.000000 -0.006000 -0.006000 0.000000 -0.006000 -0.006000 0.000000 -0.006000 -0.006000 0.000000 -0.006000 -0.006000 0.000000 -0.006000 -0.006000 0.000000 -0.006000 -0.006000 0.000000 -0.006000 -0.006000 0.000000 -0.006000 -0.006000 0.000000 -0.006000 0.000000 0.000000 -0.006000 0.000000 0.000000 -0.006000 0.006000 0.000000 -0.000000 0.006000 0.000000 -0.006000 0.006000 0.000000 -0.006000 0.006000 0.000000 -0.006000 0.006000 0.000000 -0.006000 0.006000 0.000000 -0.111030 0.006000 0.000000 0.000000 0.006000 0.000000 -0.405085 0.009000 0.000000 -0.006000 -0.009000 0.000000 -0.006000 -0.006000 0.000000 -0.006000 -0.006000 0.000000 -0.006000 -0.006000 0.000000 -0.006000 -0.006000 0.000000 -0.006000 -0.006000 0.000000 -0.006000 -0.006000 0.000000 -0.006000 -0.006000 0.000000 -0.006000 -0.006000 0.000000 -0.006000 0.000000 0.000000 -0.006000 0.000000 0.000000 -0.006000 0.006000 0.000000 -0.000000 0.006000 0.000000 -0.006000 0.006000 0.000000 -0.006000 0.006000 0.000000 -0.006000 0.006000 0.000000 -0.006000 0.006000 0.000000 -0.111072 0.006000 0.000000 0.000000 0.006000 0.000000 -0.245822 0.009000 0.000000 -0.006000 -0.009000 0.000000 -0.006000 -0.006000 0.000000 -0.006000 -0.006000 0.000000 -0.006000 -0.006000 0.000000 -0.006000 -0.006000 0.000000 -0.006000 -0.006000 0.000000 -0.006000 -0.006000 0.000000 -0.006000 -0.006000 0.000000 -0.006000 -0.006000 0.000000 -0.006000 0.000000 0.000000 -0.006000 0.000000 0.000000 -0.006000 0.006000 0.000000 -0.000000 0.006000 0.000000 -0.006000 0.006000 0.000000 -0.006000 0.006000 0.000000 -0.006000 0.006000 0.000000 -0.006000 0.006000 0.000000 -0.101987 0.006000 0.000000 -0.000000 0.006000 0.000000 -0.423101 0.009000 0.000000 -0.006000 -0.009000 0.000000 -0.006000 -0.006000 0.000000 -0.006000 -0.006000 0.000000 -0.006000 -0.006000 0.000000 -0.006000 -0.006000 0.000000 -0.006000 -0.006000 0.000000 -0.006000 -0.006000 0.000000 -0.006000 -0.006000 0.000000 -0.006000 -0.006000 0.000000 -0.006000 0.000000 0.000000 -0.006000 0.000000 0.000000 -0.006000 0.006000 0.000000 -0.000000 0.006000 0.000000 -0.006000 0.006000 0.000000 -0.006000 0.006000 0.000000 -0.006000 0.006000 0.000000 -0.006000 0.006000 0.000000 -0.096213 0.006000 0.000000 0.000000 0.006000 0.000000 -0.218074 0.009000 0.000000 -0.006000 -0.009000 0.000000 -0.006000 -0.006000 0.000000 -0.006000 -0.006000 0.000000 -0.006000 -0.006000 0.000000 -0.000000 -0.006000 0.000000 -0.006000 -0.006000 0.000000 -0.006000 -0.006000 0.000000 -0.006000 -0.006000 0.000000 -0.006000 -0.006000 0.000000 -0.006000 0.000000 0.000000 -0.006000 0.000000 0.000000 -0.000000 0.006000 0.000000 -0.000000 0.006000 0.000000 -0.006000 0.006000 0.000000 -0.006000 0.006000 0.000000 -0.006000 0.006000 0.000000 -0.006000 0.006000 0.000000 -0.107854 0.006001 0.000000 0.000000 0.006000 0.000000 -0.207057 0.009026 0.000000 -0.006000 -0.009000 0.000000 -0.006000 -0.006000 0.000000 -0.006000 -0.006000 0.000000 -0.006000 -0.006000 0.000000 0.000000 -0.006000 0.000000 -0.006000 -0.006000 0.000000 -0.006000 -0.006000 0.000000 -0.006000 -0.006000 0.000000 -0.006000 -0.006000 0.000000 -0.006000 0.000000 0.000000 -0.000000 0.000000 0.000000 0.000000 0.006000 0.000000 -0.000000 0.006000 0.000000 -0.006000 0.006000 0.000000 -0.006000 0.006000 0.000000 -0.006000 0.006000 0.000000 -0.006000 0.006000 0.000000 -0.138372 0.005771 0.000000 0.006000 0.006000 0.000000 -0.227680 0.007783 0.000000 -0.006000 -0.009000 0.000000 -0.006000 -0.006000 0.000000 -0.006000 -0.006000 0.000000 -0.006000 -0.005989 0.000000 -0.000000 -0.006000 0.000000 -0.006000 -0.006000 0.000000 -0.006000 -0.006000 0.000000 0.000000 -0.006005 0.000000 -0.006000 -0.006000 0.000000 -0.006000 -0.000000 0.000000 -0.000000 -0.000000 0.000000 0.000006 0.000001 0.000000 0.005995 0.006020 0.000000 -0.006001 0.006000 0.000000 -0.006000 0.006000 0.000000 -0.006000 0.006000 0.000000 -0.005999 0.006000 0.000000 -0.129462 0.014330 0.000000 0.006048 0.018000 0.000000 -0.257618 0.034813 0.000000 -0.006000 -0.171001 0.000000 -0.006002 -0.096005 0.000000 -0.005996 -0.167940 0.000000 -0.000527 -0.179985 0.000000 0.000391 -0.128984 0.000000 0.001012 -0.119958 0.000000 -0.006964 -0.020941 0.000000 -0.000905 -0.005986 0.000000 0.001225 -0.125977 0.000000 -0.000481 -0.023815 0.000000 0.000378 -0.122898 0.000000 0.000906 -0.014489 0.000000 0.005214 -0.174023 0.000000 -0.006251 -0.173996 0.000000 -0.005999 -0.071988 0.000000 -0.006002 -0.090013 0.000000 -0.003410 -0.174012 0.000000 -0.263212 -0.034765 0.000000 0.029703 -0.083570 0.000000 -0.462151 -0.031570 0.000000 -0.011585 -2.409035 0.000000 -0.023165 -2.544038 0.000000 -0.022362 -2.541138 0.000000 -0.006878 -2.565052 0.000000 -0.017154 -2.574115 0.000000 -0.016121 -2.541390 0.000000 0.024056 -2.480687 0.000000 -0.094492 -9.595201 0.000000 0.068607 -2.282705 0.000000 -0.234073 -9.348849 0.000000 0.190852 -1.944975 0.000000 0.222640 -8.943910 0.000000 -0.503942 -1.101816 0.000000 0.081466 -2.960590 0.000000 0.119136 -6.150926 0.000000 -0.352789 0.715380 0.000000 0.325235 -0.011766 0.000000 0.105141 -3.587301 0.000000 -2.131484 -2.021092 0.000000 3.340904 -1.900253 0.000000 -0.011589 -2.553051 0.000000 -0.011484 -2.514125 0.000000 -0.018825 -2.523103 0.000000 -0.003733 -2.589052 0.000000 -0.015747 -2.475216 0.000000 -0.009074 -2.502349 0.000000 0.023381 -2.547688 0.000000 -0.056271 -9.726852 0.000000 0.072536 -2.314478 0.000000 -0.176001 -9.656691 0.000000 0.145081 -2.027228 0.000000 0.240121 -9.671421 0.000000 -0.424704 -1.816855 0.000000 0.110594 -9.377278 0.000000 0.025982 -1.413517 0.000000 -0.693370 -9.030952 0.000000 0.774432 -0.875181 0.000000 0.624621 -4.365429 0.000000 -3.773033 -3.604045 0.000000 6.028899 -3.345108 0.000000 -0.011611 -2.574041 0.000000 -0.011799 -2.502015 0.000000 -0.012673 -2.505055 0.000000 0.002619 -2.517103 0.000000 -0.015968 -2.421145 0.000000 0.003662 -2.559230 0.000000 0.016372 -2.512068 0.000000 -0.077999 -9.614118 0.000000 0.088710 -2.341046 0.000000 -0.182343 -9.637768 0.000000 0.129036 -1.998694 0.000000 0.259907 -9.652502 0.000000 -0.440771 -1.744169 0.000000 0.120383 -9.336050 0.000000 0.018543 -1.453306 0.000000 -0.634519 -8.915984 0.000000 0.792019 -0.573429 0.000000 0.744969 -3.053107 0.000000 -3.753619 -4.138416 0.000000 6.450655 -3.029863 0.000000 -0.011549 -2.469056 0.000000 -0.001995 -2.610070 0.000000 -0.008373 -2.493051 0.000000 -0.006155 -2.460110 0.000000 -0.018149 -2.550085 0.000000 0.000165 -2.574328 0.000000 0.022227 -2.548463 0.000000 -0.072996 -9.801821 0.000000 0.081075 -2.334065 0.000000 -0.150686 -9.646031 0.000000 0.086666 -1.959287 0.000000 0.312891 -9.629941 0.000000 -0.323350 -1.720150 0.000000 0.135959 -9.452273 0.000000 0.042689 -1.451981 0.000000 -0.639707 -9.009511 0.000000 0.752703 -0.483183 0.000000 0.540094 -2.034328 0.000000 -3.758016 -4.965513 0.000000 6.342137 -2.342855 0.000000 -0.005935 -2.553074 0.000000 -0.008119 -2.496022 0.000000 -0.006985 -2.541100 0.000000 0.017629 -2.541033 0.000000 -0.006323 -2.481117 0.000000 -0.001139 -2.568405 0.000000 0.033172 -2.475889 0.000000 -0.079870 -9.684728 0.000000 0.082633 -2.342248 0.000000 -0.187802 -9.760229 0.000000 0.064235 -1.961813 0.000000 0.338939 -9.610407 0.000000 -0.401181 -1.770391 0.000000 0.135231 -9.464674 0.000000 0.009717 -1.512517 0.000000 -0.620169 -9.124703 0.000000 0.682452 -0.448133 0.000000 0.464264 -2.054689 0.000000 -3.706753 -4.962098