<VTKFile type="UnstructuredGrid" version="0.1" byte_order="LittleEndian">
  <UnstructuredGrid>
    <Piece NumberOfPoints="2000" NumberOfCells="0">
      <Points>
        <DataArray name="Position" type="Float32" NumberOfComponents="3" format="ascii">
-0.001636 -0.000985 0.000000 -0.001636 0.999344 0.000000 -0.001636 1.999344 0.000000 -0.001636 2.999344 0.000000 -0.002125 3.999345 0.000000 -0.002259 4.999345 0.000000 -0.002245 5.999345 0.000000 -0.002280 6.999345 0.000000 -0.001627 7.999346 0.000000 -0.002279 9.000000 0.000000 -0.001623 10.000001 0.000000 -0.001622 11.000654 0.000000 -0.001624 12.000655 0.000000 -0.001624 13.000655 0.000000 -0.001624 14.000655 0.000000 -0.001618 15.000655 0.000000 -0.001618 16.000656 0.000000 -0.001618 17.000656 0.000000 -0.001618 18.000656 0.000000 -0.001618 19.000985 0.000000 0.999341 -0.000985 0.000000 0.999341 0.999344 0.000000 0.999341 1.999344 0.000000 0.999341 2.999344 0.000000 0.998608 3.999345 0.000000 0.998075 4.999345 0.000000 0.998145 5.999345 0.000000 0.998693 6.999345 0.000000 0.999336 7.999346 0.000000 0.998694 9.000000 0.000000 0.999334 10.000001 0.000000 0.999334 11.000654 0.000000 0.999335 12.000655 0.000000 0.999335 13.000655 0.000000 0.999335 14.000655 0.000000 0.999332 15.000655 0.000000 0.999332 16.000656 0.000000 0.999332 17.000656 0.000000 0.999332 18.000656 0.000000 0.999295 19.000985 0.000000 1.999344 -0.000985 0.000000 1.999344 0.999344 0.000000 1.999344 1.999344 0.000000 1.999344 2.999344 0.000000 1.999340 3.999345 0.000000 1.998685 4.999345 0.000000 1.998678 5.999345 0.000000 1.998697 6.999345 0.000000 1.999344 7.999346 0.000000 1.998697 9.000000 0.000000 1.999344 10.000001 0.000000 1.999344 11.000654 0.000000 1.999344 12.000655 0.000000 1.999344 13.000655 0.000000 1.999344 14.000655 0.000000 1.999344 15.000655 0.000000 1.999344 16.000656 0.000000 1.999344 17.000656 0.000000 1.999344 18.000656 0.000000 1.999309 19.000985 0.000000 2.999344 -0.000985 0.000000 2.999344 0.999344 0.000000 2.999344 1.999344 0.000000 2.999344 2.999344 0.000000 2.999343 3.999345 0.000000 2.998693 4.999345 0.000000 2.998695 5.999345 0.000000 2.998701 6.999345 0.000000 2.999344 7.999346 0.000000 2.998701 9.000000 0.000000 2.999344 10.000001 0.000000 2.999344 11.000654 0.000000 2.999344 12.000655 0.000000 2.999344 13.000655 0.000000 2.999344 14.000655 0.000000 2.999344 15.000655 0.000000 2.999344 16.000656 0.000000 2.999344 17.000656 0.000000 2.999344 18.000656 0.000000 2.999320 19.000985 0.000000 3.999344 -0.000985 0.000000 3.999344 0.999344 0.000000 3.999344 1.999344 0.000000 3.999344 2.999344 0.000000 3.999343 3.999345 0.000000 3.998695 4.999345 0.000000 3.998700 5.999345 0.000000 3.999338 6.999345 0.000000 3.999344 7.999346 0.000000 3.999338 9.000000 0.000000 3.999344 10.000001 0.000000 3.999344 11.000654 0.000000 3.999344 12.000655 0.000000 3.999344 13.000655 0.000000 3.999344 14.000655 0.000000 3.999344 15.000655 0.000000 3.999344 16.000656 0.000000 3.999344 17.000656 0.000000 3.999344 18.000656 0.000000 3.999326 19.000985 0.000000 4.999345 -0.003514 0.000000 4.999345 0.998021 0.000000 4.999345 1.998042 0.000000 4.999345 2.998048 0.000000 4.999344 3.998679 0.000000 4.998696 4.998691 0.000000 4.998731 5.998700 0.000000 4.999343 6.998712 0.000000 4.999344 7.999345 0.000000 4.999343 8.999345 0.000000 4.999344 9.999345 0.000000 4.999344 11.000001 0.000000 4.999345 12.000655 0.000000 4.999345 13.000655 0.000000 4.999345 14.000655 0.000000 4.999345 15.000655 0.000000 4.999345 16.000656 0.000000 4.999345 17.000656 0.000000 4.999345 18.000656 0.000000 4.999328 19.000985 0.000000 5.999346 -0.001629 0.000000 5.999346 0.998728 0.000000 5.999346 1.999337 0.000000 5.999346 2.999344 0.000000 5.999346 3.999344 0.000000 5.998702 4.999344 0.000000 5.998736 5.999345 0.000000 5.999343 6.999961 0.000000 5.999345 7.999999 0.000000 5.999343 9.000000 0.000000 5.999345 10.000001 0.000000 5.999344 11.000654 0.000000 5.999345 12.000655 0.000000 5.999345 13.000655 0.000000 5.999345 14.000655 0.000000 5.999345 15.000655 0.000000 5.999345 16.000656 0.000000 5.999345 17.000656 0.000000 5.999345 18.000656 0.000000 5.999330 19.000985 0.000000 6.999346 -0.000985 0.000000 6.999346 0.999344 0.000000 6.999346 1.999344 0.000000 6.999346 2.999344 0.000000 6.999346 3.999345 0.000000 6.999336 4.999345 0.000000 6.999336 5.999345 0.000000 6.999344 6.999346 0.000000 6.999345 7.999346 0.000000 6.999344 8.999999 0.000000 6.999345 10.000001 0.000000 6.999345 11.000654 0.000000 6.999345 12.000655 0.000000 6.999345 13.000655 0.000000 6.999345 14.000655 0.000000 6.999345 15.000655 0.000000 6.999345 16.000656 0.000000 6.999345 17.000656 0.000000 6.999345 18.000656 0.000000 6.999331 19.000985 0.000000 7.999346 -0.000985 0.000000 7.999346 0.999344 0.000000 7.999346 1.999344 0.000000 7.999346 2.999344 0.000000 7.999347 3.999345 0.000000 7.999342 4.999345 0.000000 7.999342 5.999345 0.000000 7.999345 6.999345 0.000000 7.999346 7.999346 0.000000 7.999345 8.999999 0.000000 7.999345 10.000001 0.000000 7.999345 11.000654 0.000000 7.999345 12.000655 0.000000 7.999345 13.000655 0.000000 7.999345 14.000655 0.000000 7.999345 15.000655 0.000000 7.999345 16.000656 0.000000 7.999345 17.000656 0.000000 7.999345 18.000656 0.000000 7.999331 19.000985 0.000000 8.999346 -0.000985 0.000000 8.999346 0.999344 0.000000 8.999346 1.999344 0.000000 8.999346 2.999344 0.000000 8.999347 3.999345 0.000000 8.999343 4.999345 0.000000 8.999344 5.999345 0.000000 8.999346 6.999345 0.000000 8.999346 7.999346 0.000000 8.999346 9.000000 0.000000 8.999346 10.000001 0.000000 8.999346 11.000654 0.000000 8.999346 12.000655 0.000000 8.999346 13.000655 0.000000 8.999346 14.000655 0.000000 8.999346 15.000655 0.000000 8.999346 16.000656 0.000000 8.999346 17.000656 0.000000 8.999346 18.000656 0.000000 8.999333 19.000985 0.000000 9.999347 -0.000985 0.000000 9.999347 0.999344 0.000000 9.999347 1.999344 0.000000 9.999347 2.999344 0.000000 9.999347 3.999345 0.000000 9.999345 4.999345 0.000000 9.999345 5.999345 0.000000 9.999347 6.999345 0.000000 9.999346 7.999346 0.000000 9.999346 9.000000 0.000000 9.999346 10.000001 0.000000 9.999346 11.000654 0.000000 9.999346 12.000655 0.000000 9.999346 13.000655 0.000000 9.999346 14.000655 0.000000 9.999346 15.000655 0.000000 9.999346 16.000656 0.000000 9.999346 17.000656 0.000000 9.999346 18.000656 0.000000 9.999337 19.000985 0.000000 10.999347 -0.000985 0.000000 10.999347 0.999344 0.000000 10.999347 1.999344 0.000000 10.999347 2.999344 0.000000 10.999348 3.999345 0.000000 10.999350 4.999345 0.000000 10.999350 5.999345 0.000000 10.999348 6.999345 0.000000 10.999347 7.999346 0.000000 10.999348 9.000000 0.000000 10.999346 10.000001 0.000000 10.999346 11.000654 0.000000 10.999346 12.000655 0.000000 10.999346 13.000655 0.000000 10.999346 14.000655 0.000000 10.999346 15.000655 0.000000 10.999346 16.000656 0.000000 10.999346 17.000656 0.000000 10.999346 18.000656 0.000000 10.999339 19.000985 0.000000 11.999347 -0.000985 0.000000 11.999347 0.999344 0.000000 11.999347 1.999344 0.000000 11.999347 2.999344 0.000000 11.999348 3.999345 0.000000 11.999350 4.999345 0.000000 11.999350 5.999345 0.000000 11.999348 6.999345 0.000000 11.999347 7.999346 0.000000 11.999348 9.000000 0.000000 11.999347 10.000001 0.000000 11.999347 11.000654 0.000000 11.999347 12.000655 0.000000 11.999347 13.000655 0.000000 11.999347 14.000655 0.000000 11.999347 15.000655 0.000000 11.999347 16.000656 0.000000 11.999347 17.000656 0.000000 11.999347 18.000656 0.000000 11.999342 19.000985 0.000000 12.999348 -0.000985 0.000000 12.999348 0.999344 0.000000 12.999348 1.999344 0.000000 12.999348 2.999344 0.000000 12.999348 3.999345 0.000000 12.999350 4.999345 0.000000 12.999350 5.999345 0.000000 12.999349 6.999345 0.000000 12.999348 7.999346 0.000000 12.999349 9.000000 0.000000 12.999347 10.000001 0.000000 12.999347 11.000654 0.000000 12.999347 12.000655 0.000000 12.999347 13.000655 0.000000 12.999347 14.000655 0.000000 12.999347 15.000655 0.000000 12.999347 16.000656 0.000000 12.999347 17.000656 0.000000 12.999347 18.000656 0.000000 12.999343 19.000985 0.000000 13.999348 -0.000985 0.000000 13.999348 0.999344 0.000000 13.999348 1.999344 0.000000 13.999348 2.999344 0.000000 13.999348 3.999345 0.000000 13.999350 4.999345 0.000000 13.999350 5.999345 0.000000 13.999349 6.999345 0.000000 13.999348 7.999346 0.000000 13.999349 9.000000 0.000000 13.999347 10.000001 0.000000 13.999347 11.000654 0.000000 13.999347 12.000655 0.000000 13.999347 13.000655 0.000000 13.999347 14.000655 0.000000 13.999347 15.000655 0.000000 13.999347 16.000656 0.000000 13.999347 17.000656 0.000000 13.999347 18.000656 0.000000 13.999343 19.000985 0.000000 14.999348 -0.000985 0.000000 14.999348 0.999344 0.000000 14.999348 1.999344 0.000000 14.999348 2.999344 0.000000 14.999349 3.999345 0.000000 14.999351 4.999345 0.000000 14.999351 5.999345 0.000000 14.999349 6.999345 0.000000 14.999348 7.999346 0.000000 14.999349 9.000000 0.000000 14.999348 10.000001 0.000000 14.999348 11.000654 0.000000 14.999348 12.000655 0.000000 14.999348 13.000655 0.000000 14.999348 14.000655 0.000000 14.999348 15.000655 0.000000 14.999348 16.000656 0.000000 14.999348 17.000656 0.000000 14.999348 18.000656 0.000000 14.999343 19.000985 0.000000 15.999348 -0.000985 0.000000 15.999348 0.999344 0.000000 15.999348 1.999344 0.000000 15.999348 2.999344 0.000000 15.999349 3.999345 0.000000 15.999351 4.999345 0.000000 15.999351 5.999345 0.000000 15.999350 6.999345 0.000000 15.999348 7.999346 0.000000 15.999350 9.000000 0.000000 15.999349 10.000001 0.000000 15.999349 11.000654 0.000000 15.999349 12.000655 0.000000 15.999349 13.000655 0.000000 15.999349 14.000655 0.000000 15.999348 15.000655 0.000000 15.999348 16.000656 0.000000 15.999348 17.000656 0.000000 15.999348 18.000656 0.000000 15.999344 19.000985 0.000000 16.999349 -0.000985 0.000000 16.999349 0.999344 0.000000 16.999349 1.999344 0.000000 16.999349 2.999344 0.000000 16.999349 3.999345 0.000000 16.999351 4.999345 0.000000 16.999351 5.999345 0.000000 16.999350 6.999345 0.000000 16.999349 7.999346
[...]
      <PointData Vectors="vector">
        <DataArray type="Float32" Name="Velocity" NumberOfComponents="3" format="ascii">
-0.015000 -0.009000 0.000000 -0.015000 -0.006000 0.000000 -0.015000 -0.006000 0.000000 -0.015000 -0.006000 0.000000 -0.021000 -0.006000 0.000000 -0.021000 -0.006000 0.000000 -0.021000 -0.006000 0.000000 -0.021000 -0.006000 0.000000 -0.015000 -0.006000 0.000000 -0.021000 0.000000 0.000000 -0.015000 0.000000 0.000000 -0.015000 0.006000 0.000000 -0.015000 0.006000 0.000000 -0.015000 0.006000 0.000000 -0.015000 0.006000 0.000000 -0.015000 0.006000 0.000000 -0.015000 0.006000 0.000000 -0.015000 0.006000 0.000000 -0.015000 0.006000 0.000000 -0.015000 0.009000 0.000000 -0.006000 -0.009000 0.000000 -0.006000 -0.006000 0.000000 -0.006000 -0.006000 0.000000 -0.006000 -0.006000 0.000000 -0.012000 -0.006000 0.000000 -0.018000 -0.006000 0.000000 -0.018000 -0.006000 0.000000 -0.012000 -0.006000 0.000000 -0.006000 -0.006000 0.000000 -0.012000 0.000000 0.000000 -0.006000 0.000000 0.000000 -0.006000 0.006000 0.000000 -0.006000 0.006000 0.000000 -0.006000 0.006000 0.000000 -0.006000 0.006000 0.000000 -0.006000 0.006000 0.000000 -0.006000 0.006000 0.000000 -0.006000 0.006000 0.000000 -0.006000 0.006000 0.000000 -0.018000 0.009000 0.000000 -0.006000 -0.009000 0.000000 -0.006000 -0.006000 0.000000 -0.006000 -0.006000 0.000000 -0.006000 -0.006000 0.000000 -0.006000 -0.006000 0.000000 -0.012000 -0.006000 0.000000 -0.012000 -0.006000 0.000000 -0.012000 -0.006000 0.000000 -0.006000 -0.006000 0.000000 -0.012000 0.000000 0.000000 -0.006000 0.000000 0.000000 -0.006000 0.006000 0.000000 -0.006000 0.006000 0.000000 -0.006000 0.006000 0.000000 -0.006000 0.006000 0.000000 -0.006000 0.006000 0.000000 -0.006000 0.006000 0.000000 -0.006000 0.006000 0.000000 -0.006000 0.006000 0.000000 -0.018000 0.009000 0.000000 -0.006000 -0.009000 0.000000 -0.006000 -0.006000 0.000000 -0.006000 -0.006000 0.000000 -0.006000 -0.006000 0.000000 -0.006000 -0.006000 0.000000 -0.012000 -0.006000 0.000000 -0.012000 -0.006000 0.000000 -0.012000 -0.006000 0.000000 -0.006000 -0.006000 0.000000 -0.012000 -0.000000 0.000000 -0.006000 -0.000000 0.000000 -0.006000 0.006000 0.000000 -0.006000 0.006000 0.000000 -0.006000 0.006000 0.000000 -0.006000 0.006000 0.000000 -0.006000 0.006000 0.000000 -0.006000 0.006000 0.000000 -0.006000 0.006000 0.000000 -0.006000 0.006000 0.000000 -0.018000 0.009000 0.000000 -0.006000 -0.009000 0.000000 -0.006000 -0.006000 0.000000 -0.006000 -0.006000 0.000000 -0.006000 -0.006000 0.000000 -0.006000 -0.005999 0.000000 -0.012000 -0.006000 0.000000 -0.012000 -0.005999 0.000000 -0.006000 -0.006000 0.000000 -0.006000 -0.006000 0.000000 -0.006000 0.000000 0.000000 -0.006000 0.000000 0.000000 -0.006000 0.006000 0.000000 -0.006000 0.006000 0.000000 -0.006000 0.006000 0.000000 -0.006000 0.006000 0.000000 -0.006000 0.006000 0.000000 -0.006000 0.006000 0.000000 -0.006000 0.006000 0.000000 -0.006000 0.006000 0.000000 -0.012000 0.009000 0.000000 -0.006000 -0.033000 0.000000 -0.006000 -0.018000 0.000000 -0.006000 -0.018000 0.000000 -0.006000 -0.018000 0.000000 -0.006000 -0.012001 0.000000 -0.012001 -0.012001 0.000000 -0.012000 -0.012001 0.000000 -0.006000 -0.012000 0.000000 -0.006000 -0.006000 0.000000 -0.006000 -0.006000 0.000000 -0.006000 -0.006000 0.000000 -0.006000 -0.000000 0.000000 -0.006000 0.006000 0.000000 -0.006000 0.006000 0.000000 -0.006000 0.006000 0.000000 -0.006000 0.006000 0.000000 -0.006000 0.006000 0.000000 -0.006000 0.006000 0.000000 -0.006000 0.006000 0.000000 -0.012000 0.009000 0.000000 -0.006000 -0.015000 0.000000 -0.006000 -0.012000 0.000000 -0.006000 -0.006000 0.000000 -0.006000 -0.006000 0.000000 -0.006000 -0.005999 0.000000 -0.012000 -0.006000 0.000000 -0.012000 -0.005999 0.000000 -0.006000 -0.000000 0.000000 -0.006000 0.000000 0.000000 -0.006000 0.000000 0.000000 -0.006000 0.000000 0.000000 -0.006000 0.006000 0.000000 -0.006000 0.006000 0.000000 -0.006000 0.006000 0.000000 -0.006000 0.006000 0.000000 -0.006000 0.006000 0.000000 -0.006000 0.006000 0.000000 -0.006000 0.006000 0.000000 -0.006000 0.006000 0.000000 -0.006000 0.009000 0.000000 -0.006000 -0.009000 0.000000 -0.006000 -0.006000 0.000000 -0.006000 -0.006000 0.000000 -0.006000 -0.006000 0.000000 -0.006000 -0.006000 0.000000 -0.006000 -0.006000 0.000000 -0.006000 -0.006000 0.000000 -0.006000 -0.006000 0.000000 -0.006000 -0.006000 0.000000 -0.006000 -0.000000 0.000000 -0.006000 0.000000 0.000000 -0.006000 0.006000 0.000000 -0.006000 0.006000 0.000000 -0.006000 0.006000 0.000000 -0.006000 0.006000 0.000000 -0.006000 0.006000 0.000000 -0.006000 0.006000 0.000000 -0.006000 0.006000 0.000000 -0.006000 0.006000 0.000000 -0.015000 0.009000 0.000000 -0.006000 -0.009000 0.000000 -0.006000 -0.006000 0.000000 -0.006000 -0.006000 0.000000 -0.006000 -0.006000 0.000000 -0.006000 -0.006000 0.000000 -0.006000 -0.006000 0.000000 -0.006000 -0.006000 0.000000 -0.006000 -0.006000 0.000000 -0.006000 -0.006000 0.000000 -0.006000 0.000000 0.000000 -0.006000 0.000000 0.000000 -0.006000 0.006000 0.000000 -0.006000 0.006000 0.000000 -0.006000 0.006000 0.000000 -0.006000 0.006000 0.000000 -0.006000 0.006000 0.000000 -0.006000 0.006000 0.000000 -0.006000 0.006000 0.000000 -0.006000 0.006000 0.000000 -0.015000 0.009000 0.000000 -0.006000 -0.009000 0.000000 -0.006000 -0.006000 0.000000 -0.006000 -0.006000 0.000000 -0.006000 -0.006000 0.000000 -0.006000 -0.006000 0.000000 -0.006000 -0.006000 0.000000 -0.006000 -0.006000 0.000000 -0.006000 -0.006000 0.000000 -0.006000 -0.006000 0.000000 -0.006000 0.000000 0.000000 -0.006000 0.000000 0.000000 -0.006000 0.006000 0.000000 -0.006000 0.006000 0.000000 -0.006000 0.006000 0.000000 -0.006000 0.006000 0.000000 -0.006000 0.006000 0.000000 -0.006000 0.006000 0.000000 -0.006000 0.006000 0.000000 -0.006000 0.006000 0.000000 -0.012000 0.009000 0.000000 -0.006000 -0.009000 0.000000 -0.006000 -0.006000 0.000000 -0.006000 -0.006000 0.000000 -0.006000 -0.006000 0.000000 -0.006000 -0.006000 0.000000 -0.006000 -0.006000 0.000000 -0.006000 -0.006000 0.000000 -0.006000 -0.006000 0.000000 -0.006000 -0.006000 0.000000 -0.006000 -0.000000 0.000000 -0.006000 0.000000 0.000000 -0.006000 0.006000 0.000000 -0.006000 0.006000 0.000000 -0.006000 0.006000 0.000000 -0.006000 0.006000 0.000000 -0.006000 0.006000 0.000000 -0.006000 0.006000 0.000000 -0.006000 0.006000 0.000000 -0.006000 0.006000 0.000000 -0.012000 0.009000 0.000000 -0.006000 -0.009000 0.000000 -0.006000 -0.006000 0.000000 -0.006000 -0.006000 0.000000 -0.006000 -0.006000 0.000000 -0.006000 -0.006000 0.000000 -0.006000 -0.006000 0.000000 -0.006000 -0.006000 0.000000 -0.006000 -0.006000 0.000000 -0.006000 -0.006000 0.000000 -0.006000 0.000000 0.000000 -0.006000 0.000000 0.000000 -0.006000 0.006000 0.000000 -0.006000 0.006000 0.000000 -0.006000 0.006000 0.000000 -0.006000 0.006000 0.000000 -0.006000 0.006000 0.000000 -0.006000 0.006000 0.000000 -0.006000 0.006000 0.000000 -0.006000 0.006000 0.000000 -0.012000 0.009000 0.000000 -0.006000 -0.009000 0.000000 -0.006000 -0.006000 0.000000 -0.006000 -0.006000 0.000000 -0.006000 -0.006000 0.000000 -0.006000 -0.006000 0.000000 -0.006000 -0.006000 0.000000 -0.006000 -0.006000 0.000000 -0.006000 -0.006000 0.000000 -0.006000 -0.006000 0.000000 -0.006000 0.000000 0.000000 -0.006000 0.000000 0.000000 -0.006000 0.006000 0.000000 -0.006000 0.006000 0.000000 -0.006000 0.006000 0.000000 -0.006000 0.006000 0.000000 -0.006000 0.006000 0.000000 -0.006000 0.006000 0.000000 -0.006000 0.006000 0.000000 -0.006000 0.006000 0.000000 -0.006000 0.009000 0.000000 -0.006000 -0.009000 0.000000 -0.006000 -0.006000 0.000000 -0.006000 -0.006000 0.000000 -0.006000 -0.006000 0.000000 -0.006000 -0.006000 0.000000 -0.006000 -0.006000 0.000000 -0.006000 -0.006000 0.000000 -0.006000 -0.006000 0.000000 -0.006000 -0.006000 0.000000 -0.006000 0.000000 0.000000 -0.006000 0.000000 0.000000 -0.006000 0.006000 0.000000 -0.006000 0.006000 0.000000 -0.006000 0.006000 0.000000 -0.006000 0.006000 0.000000 -0.006000 0.006000 0.000000 -0.006000 0.006000 0.000000 -0.006000 0.006000 0.000000 -0.006000 0.006000 0.000000 -0.006000 0.009000 0.000000 -0.006000 -0.009000 0.000000 -0.006000 -0.006000 0.000000 -0.006000 -0.006000 0.000000 -0.006000 -0.006000 0.000000 -0.006000 -0.006000 0.000000 -0.006000 -0.006000 0.000000 -0.006000 -0.006000 0.000000 -0.006000 -0.006000 0.000000 -0.006000 -0.006000 0.000000 -0.006000 0.000000 0.000000 -0.006000 0.000000 0.000000 -0.006000 0.006000 0.000000 -0.006000 0.006000 0.000000 -0.006000 0.006000 0.000000 -0.006000 0.006000 0.000000 -0.006000 0.006000 0.000000 -0.006000 0.006000 0.000000 -0.006000 0.006000 0.000000 -0.006000 0.006000 0.000000 -0.006000 0.009000 0.000000 -0.006000 -0.009000 0.000000 -0.006000 -0.006000 0.000000 -0.006000 -0.006000 0.000000 -0.006000 -0.006000 0.000000 -0.006000 -0.006000 0.000000 -0.006000 -0.006000 0.000000 -0.006000 -0.006000 0.000000 -0.006000 -0.006000 0.000000 -0.006000 -0.006000 0.000000 -0.006000 0.000000 0.000000 -0.006000 0.000000 0.000000 -0.006000 0.006000 0.000000 -0.006000 0.006000 0.000000 -0.006000 0.006000 0.000000 -0.006000 0.006000 0.000000 -0.006000 0.006000 0.000000 -0.006000 0.006000 0.000000 -0.006000 0.006000 0.000000 -0.006000 0.006000 0.000000 -0.006000 0.009000 0.000000 -0.006000 -0.009000 0.000000 -0.006000 -0.006000 0.000000 -0.006000 -0.006000 0.000000 -0.006000 -0.006000 0.000000 -0.006000 -0.006000 0.000000 -0.006000 -0.006000 0.000000 -0.006000 -0.006000 0.000000 -0.006000 -0.006000 0.000000 -0.006000 -0.006000 0.000000 -0.006000 0.000000 0.000000 -0.006000 0.000000 0.000000 -0.006000 0.006000 0.000000 -0.006000 0.006000 0.000000 -0.006000 0.006000 0.000000 -0.006000 0.006000 0.000000 -0.006000 0.006000 0.000000 -0.006000 0.006000 0.000000 -0.006000 0.006000 0.000000 -0.006000 0.006000 0.000000 -0.006000 0.009000 0.000000 -0.006000 -0.009000 0.000000 -0.006000 -0.006000 0.000000 -0.006000 -0.006000 0.000000 -0.006000 -0.006000 0.000000 -0.006000 -0.006000 0.000000 -0.006000 -0.006000 0.000000 -0.006000 -0.006000 0.000000 -0.006000 -0.006000 0.000000 -0.006000 -0.006000 0.000000 -0.006000 0.000000 0.000000 -0.006000 0.000000 0.000000 -0.006000 0.006000 0.000000 -0.006000 0.006000 0.000000 -0.006000 0.006000 0.000000 -0.006000 0.006000 0.000000 -0.006000 0.006000 0.000000 -0.006000 0.006000 0.000000 -0.006000 0.006000 0.000000 -0.006000 0.006000 0.000000 -0.006000 0.009000 0.000000 -0.006000 -0.009000 0.000000 -0.006000 -0.006000 0.000000 -0.006000 -0.006000 0.000000 -0.006000 -0.006000 0.000000 -0.006000 -0.006000 0.000000 -0.006000 -0.006000 0.000000 -0.006000 -0.006000 0.000000 -0.006000 -0.006000 0.000000 -0.006000 -0.006000 0.000000 -0.006000 0.000000 0.000000 -0.006000 0.000000 0.000000 -0.006000 0.006000 0.000000 -0.006000 0.006000 0.000000 -0.006000 0.006000 0.000000 -0.006000 0.006000 0.000000 -0.006000 0.006000 0.000000 -0.006000 0.006000 0.000000 -0.006000 0.006000 0.000000 -0.006000 0.006000 0.000000 -0.006000 0.009000 0.000000 -0.006000 -0.009000 0.000000 -0.006000 -0.006000 0.000000 -0.006000 -0.006000 0.000000 -0.006000 -0.006000 0.000000 -0.006000 -0.006000 0.000000 -0.006000 -0.006000 0.000000 -0.006000 -0.006000 0.000000 -0.006000 -0.006000 0.000000 -0.006000 -0.006000 0.000000 -0.006000 0.000000 0.000000 -0.006000 0.000000 0.000000 -0.006000 0.006000 0.000000 -0.006000 0.006000 0.000000 -0.006000 0.006000 0.000000 -0.006000 0.006000 0.000000 -0.006000 0.006000 0.000000 -0.006000 0.006000 0.000000 -0.006000 0.006000 0.000000 -0.006000 0.006000 0.000000 -0.006000 0.009000 0.000000 -0.006000 -0.009000 0.000000 -0.006000 -0.006000 0.000000 -0.006000 -0.006000 0.000000 -0.006000 -0.006000 0.000000 -0.006000 -0.006000 0.000000 -0.006000 -0.006000 0.000000 -0.006000 -0.006000 0.000000 -0.006000 -0.006000 0.000000 -0.006000 -0.006000 0.000000 -0.006000 0.000000 0.000000 -0.006000 0.000000 0.000000 -0.006000 0.006000 0.000000 -0.006000 0.006000 0.000000 -0.006000 0.006000 0.000000 -0.006000 0.006000 0.000000 -0.006000 0.006000 0.000000 -0.006000 0.006000 0.000000 -0.006000 0.006000 0.000000 -0.006000 0.006000 0.000000 -0.012000 0.009000 0.000000 -0.006000 -0.009000 0.000000 -0.006000 -0.006000 0.000000 -0.006000 -0.006000 0.000000 -0.006000 -0.006000 0.000000 -0.006000 -0.006000 0.000000 -0.006000 -0.006000 0.000000 -0.006000 -0.006000 0.000000 -0.006000 -0.006000 0.000000 -0.006000 -0.006000 0.000000 -0.006000 0.000000 0.000000 -0.006000 0.000000 0.000000 -0.006000 0.006000 0.000000 -0.006000 0.006000 0.000000 -0.006000 0.006000 0.000000 -0.006000 0.006000 0.000000 -0.006000 0.006000 0.000000 -0.006000 0.006000 0.000000 -0.006000 0.006000 0.000000 -0.006000 0.006000 0.000000 -0.006000 0.009000 0.000000 -0.006000 -0.009000 0.000000 -0.006000 -0.006000 0.000000 -0.006000 -0.006000 0.000000 -0.006000 -0.006000 0.000000 -0.006000 -0.006000 0.000000 -0.006000 -0.006000 0.000000 -0.006000 -0.006000 0.000000 -0.006000 -0.006000 0.000000 -0.006000 -0.006000 0.000000 -0.006000 0.000000 0.000000 -0.006000 0.000000 0.000000 -0.006000 0.006000 0.000000 -0.006000 0.006000 0.000000 -0.006000 0.006000 0.000000 -0.006000 0.006000 0.000000 -0.006000 0.006000 0.000000 -0.006000 0.006000 0.000000 -0.006000 0.006000 0.000000 -0.006000 0.006000 0.000000 -0.003000 0.009000 0.000000 -0.006000 -0.009000 0.000000 -0.006000 -0.006000 0.000000 -0.006000 -0.006000 0.000000 -0.006000 -0.006000 0.000000 -0.006000 -0.006000 0.000000 -0.006000 -0.006000 0.000000 -0.006000 -0.006000 0.000000 -0.006000 -0.006000 0.000000 -0.006000 -0.006000 0.000000 -0.006000 0.000000 0.000000 -0.006000 0.000000 0.000000 -0.006000 0.006000 0.000000 -0.006000 0.006000 0.000000 -0.006000 0.006000 0.000000 -0.006000 0.006000 0.000000 -0.006000 0.006000 0.000000 -0.006000 0.006000 0.000000 -0.006000 0.006000 0.000000 -0.006000 0.006000 0.000000 -0.000000 0.009000 0.000000 -0.006000 -0.009000 0.000000 -0.006000 -0.006000 0.000000 -0.006000 -0.006000 0.000000 -0.006000 -0.006000 0.000000 -0.006000 -0.006000 0.000000 -0.006000 -0.006000 0.000000 -0.006000 -0.006000 0.000000 -0.006000 -0.006000 0.000000 -0.006000 -0.006000 0.000000 -0.006000 0.000000 0.000000 -0.006000 0.000000 0.000000 -0.006000 0.006000 0.000000 -0.006000 0.006000 0.000000 -0.006000 0.006000 0.000000 -0.006000 0.006000 0.000000 -0.006000 0.006000 0.000000 -0.006000 0.006000 0.000000 -0.006000 0.006000 0.000000 -0.006000 0.006000 0.000000 0.003000 0.009000 0.000000 -0.006000 -0.009000 0.000000 -0.006000 -0.006000 0.000000 -0.006000 -0.006000 0.000000 -0.006000 -0.006000 0.000000 -0.006000 -0.006000 0.000000 -0.006000 -0.006000 0.000000 -0.006000 -0.006000 0.000000 -0.006000 -0.006000 0.000000 -0.006000 -0.006000 0.000000 -0.006000 0.000000 0.000000 -0.006000 0.000000 0.000000 -0.006000 0.006000 0.000000 -0.006000 0.006000 0.000000 -0.006000 0.006000 0.000000 -0.006000 0.006000 0.000000 -0.006000 0.006000 0.000000 -0.006000 0.006000 0.000000 -0.006000 0.006000 0.000000 -0.006000 0.006000 0.000000 -0.006000 0.009000 0.000000 -0.006000 -0.009000 0.000000 -0.006000 -0.006000 0.000000 -0.006000 -0.006000 0.000000 -0.006000 -0.006000 0.000000 -0.006000 -0.006000 0.000000 -0.006000 -0.006000 0.000000 -0.006000 -0.006000 0.000000 -0.006000 -0.006000 0.000000 -0.006000 -0.006000 0.000000 -0.006000 0.000000 0.000000 -0.006000 0.000000 0.000000 -0.006000 0.006000 0.000000 -0.006000 0.006000 0.000000 -0.006000 0.006000 0.000000 -0.006000 0.006000 0.000000 -0.006000 0.006000 0.000000 -0.006000 0.006000 0.000000 -0.006000 0.006000 0.000000 -0.006000 0.006000 0.000000 -0.006000 0.009000 0.000000 -0.006000 -0.009000 0.000000 -0.006000 -0.006000 0.000000 -0.006000 -0.006000 0.000000 -0.006000 -0.006000 0.000000 -0.006000 -0.006000 0.000000 -0.006000 -0.006000 0.000000 -0.006000 -0.006000 0.000000 -0.006000 -0.006000 0.000000 -0.006000 -0.006000 0.000000 -0.006000 0.000000 0.000000 -0.006000 0.000000 0.000000 -0.006000 0.006000 0.000000 -0.006000 0.006000 0.000000 -0.006000 0.006000 0.000000 -0.006000 0.006000 0.000000 -0.006000 0.006000 0.000000 -0.006000 0.006000 0.000000 -0.006000 0.006000 0.000000 -0.006000 0.006000 0.000000 -0.012000 0.009000 0.000000 -0.006000 -0.009000 0.000000 -0.006000 -0.006000 0.000000 -0.006000 -0.006000 0.000000 -0.006000 -0.006000 0.000000 -0.006000 -0.006000 0.000000 -0.006000 -0.006000 0.000000 -0.006000 -0.006000 0.000000 -0.006000 -0.006000 0.000000 -0.006000 -0.006000 0.000000 -0.006000 0.000000 0.000000 -0.006000 0.000000 0.000000 -0.006000 0.006000 0.000000 -0.006000 0.006000 0.000000 -0.006000 0.006000 0.000000 -0.006000 0.006000 0.000000 -0.006000 0.006000 0.000000 -0.006000 0.006000 0.000000 -0.006000 0.006000 0.000000 -0.006000 0.006000 0.000000 -0.000000 0.009000 0.000000 -0.006000 -0.009000 0.000000 -0.006000 -0.006000 0.000000 -0.006000 -0.006000 0.000000 -0.006000 -0.006000 0.000000 -0.006000 -0.006000 0.000000 -0.006000 -0.006000 0.000000 -0.006000 -0.006000 0.000000 -0.006000 -0.006000 0.000000 -0.006000 -0.006000 0.000000 -0.006000 0.000000 0.000000 -0.006000 0.000000 0.000000 -0.006000 0.006000 0.000000 -0.006000 0.006000 0.000000 -0.006000 0.006000 0.000000 -0.006000 0.006000 0.000000 -0.006000 0.006000 0.000000 -0.006000 0.006000 0.000000 -0.006000 0.006000 0.000000 -0.006000 0.006000 0.000000 -0.006000 0.009136 0.000000 -0.006000 -0.009000 0.000000 -0.006000 -0.006000 0.000000 -0.006000 -0.006000 0.000000 -0.006000 -0.006000 0.000000 -0.006000 -0.006000 0.000000 -0.006000 -0.006000 0.000000 -0.006000 -0.006000 0.000000 -0.006000 -0.006000 0.000000 -0.006000 -0.006000 0.000000 -0.006000 0.000000 0.000000 -0.006000 0.000000 0.000000 -0.006000 -0.108000 0.000000 -0.006000 -0.111000 0.000000 -0.006000 -0.111000 0.000000 -0.006000 -0.117000 0.000000 -0.006000 -0.108000 0.000000 -0.006000 -0.108000 0.000000 -0.006000 -0.114001 0.000000 -0.006000 -0.096861 0.000000 0.000426 -0.319967 0.000000 -0.006000 -0.009000 0.000000 -0.006000 -0.006000 0.000000 -0.006000 -0.006000 0.000000 -0.006000 -0.006000 0.000000 -0.006000 -0.006000 0.000000 -0.006000 -0.006000 0.000000 -0.006000 -0.006000 0.000000 -0.006000 -0.006000 0.000000 -0.006000 -0.006000 0.000000 -0.006000 0.000000 0.000000 -0.006000 0.000000 0.000000 -0.006000 -0.108000 0.000000 -0.006000 -0.105000 0.000000 -0.006000 -0.105000 0.000000 -0.006000 -0.102000 0.000000 -0.006000 -0.111000 0.000000 -0.006000 -0.108000 0.000000 -0.006000 -0.108001 0.000000 -0.006002 -0.096808 0.000000 0.000016 -0.317569 0.000000 -0.006000 -0.009000 0.000000 -0.006000 -0.006000 0.000000 -0.006000 -0.006000 0.000000 -0.006000 -0.006000 0.000000 -0.006000 -0.006000 0.000000 -0.006000 -0.006000 0.000000 -0.006000 -0.006000 0.000000 -0.006000 -0.006000 0.000000 -0.006000 -0.006000 0.000000 -0.006000 0.000000 0.000000 -0.006000 0.000000 0.000000 -0.006000 -0.108000 0.000000 -0.006000 -0.108000 0.000000 -0.006000 -0.102000 0.000000 -0.006000 -0.105000 0.000000 -0.006000 -0.111000 0.000000 -0.006000 -0.111000 0.000000 -0.006000 -0.108001 0.000000 -0.006002 -0.096819 0.000000 0.000016 -0.317714 0.000000 -0.006000 -0.009000 0.000000 -0.006000 -0.006000 0.000000 -0.006000 -0.006000 0.000000 -0.006000 -0.006000 0.000000 -0.006000 -0.006000 0.000000 0.000000 -0.006000 0.000000 0.000000 -0.006000 0.000000 -0.006000 -0.006000 0.000000 -0.006000 -0.006000 0.000000 -0.006000 0.000000 0.000000 -0.006000 0.000000 0.000000 -0.006000 -0.108000 0.000000 -0.006000 -0.105000 0.000000 -0.006000 -0.105000 0.000000 -0.006000 -0.102000 0.000000 -0.006000 -0.111000 0.000000 -0.006000 -0.108000 0.000000 -0.006000 -0.108001 0.000000 -0.006002 -0.096808 0.000000 0.000017 -0.317574 0.000000 -0.006000 -0.009000 0.000000 -0.006000 -0.006000 0.000000 -0.006000 -0.006000 0.000000 -0.006000 -0.006000 0.000000 -0.006000 -0.006000 0.000000 0.000000 -0.006000 0.000000 0.000000 -0.006000 0.000000 -0.006000 -0.006000 0.000000 -0.006000 -0.006000 0.000000 -0.006000 0.000000 0.000000 -0.006000 0.000000 0.000000 -0.006000 -0.108000 0.000000 -0.006000 -0.105000 0.000000 -0.006000 -0.105000 0.000000 -0.006000 -0.102000 0.000000 -0.006000 -0.111000 0.000000 -0.006000 -0.108000 0.000000 -0.006