<VTKFile type="UnstructuredGrid" version="0.1" byte_order="LittleEndian">
  <UnstructuredGrid>
    <Piece NumberOfPoints="2000" NumberOfCells="0">
      <Points>
        <DataArray name="Position" type="Float32" NumberOfComponents="3" format="ascii">
-0.001096 -0.000661 0.000000 -0.001096 0.999560 0.000000 -0.001096 1.999560 0.000000 -0.001096 2.999560 0.000000 -0.001369 3.999561 0.000000 -0.001503 4.999561 0.000000 -0.001489 5.999561 0.000000 -0.001524 6.999561 0.000000 -0.001087 7.999562 0.000000 -0.001523 9.000000 0.000000 -0.001083 10.000001 0.000000 -0.001082 11.000438 0.000000 -0.001084 12.000439 0.000000 -0.001084 13.000439 0.000000 -0.001084 14.000439 0.000000 -0.001078 15.000439 0.000000 -0.001078 16.000440 0.000000 -0.001078 17.000440 0.000000 -0.001078 18.000440 0.000000 -0.001078 19.000661 0.000000 0.999557 -0.000661 0.000000 0.999557 0.999560 0.000000 0.999557 1.999560 0.000000 0.999557 2.999560 0.000000 0.999040 3.999561 0.000000 0.998723 4.999561 0.000000 0.998793 5.999561 0.000000 0.999125 6.999561 0.000000 0.999552 7.999562 0.000000 0.999126 9.000000 0.000000 0.999550 10.000001 0.000000 0.999550 11.000438 0.000000 0.999551 12.000439 0.000000 0.999551 13.000439 0.000000 0.999551 14.000439 0.000000 0.999548 15.000439 0.000000 0.999548 16.000440 0.000000 0.999548 17.000440 0.000000 0.999548 18.000440 0.000000 0.999548 19.000661 0.000000 1.999560 -0.000661 0.000000 1.999560 0.999560 0.000000 1.999560 1.999560 0.000000 1.999560 2.999560 0.000000 1.999556 3.999561 0.000000 1.999117 4.999561 0.000000 1.999110 5.999561 0.000000 1.999129 6.999561 0.000000 1.999560 7.999562 0.000000 1.999129 9.000000 0.000000 1.999560 10.000001 0.000000 1.999560 11.000438 0.000000 1.999560 12.000439 0.000000 1.999560 13.000439 0.000000 1.999560 14.000439 0.000000 1.999560 15.000439 0.000000 1.999560 16.000440 0.000000 1.999560 17.000440 0.000000 1.999560 18.000440 0.000000 1.999560 19.000661 0.000000 2.999560 -0.000661 0.000000 2.999560 0.999560 0.000000 2.999560 1.999560 0.000000 2.999560 2.999560 0.000000 2.999559 3.999561 0.000000 2.999125 4.999561 0.000000 2.999127 5.999561 0.000000 2.999133 6.999561 0.000000 2.999560 7.999562 0.000000 2.999133 9.000000 0.000000 2.999560 10.000001 0.000000 2.999560 11.000438 0.000000 2.999560 12.000439 0.000000 2.999560 13.000439 0.000000 2.999560 14.000439 0.000000 2.999560 15.000439 0.000000 2.999560 16.000440 0.000000 2.999560 17.000440 0.000000 2.999560 18.000440 0.000000 2.999560 19.000661 0.000000 3.999560 -0.000661 0.000000 3.999560 0.999560 0.000000 3.999560 1.999560 0.000000 3.999560 2.999560 0.000000 3.999559 3.999561 0.000000 3.999127 4.999561 0.000000 3.999132 5.999561 0.000000 3.999554 6.999561 0.000000 3.999560 7.999562 0.000000 3.999554 9.000000 0.000000 3.999560 10.000001 0.000000 3.999560 11.000438 0.000000 3.999560 12.000439 0.000000 3.999560 13.000439 0.000000 3.999560 14.000439 0.000000 3.999560 15.000439 0.000000 3.999560 16.000440 0.000000 3.999560 17.000440 0.000000 3.999560 18.000440 0.000000 3.999560 19.000661 0.000000 4.999561 -0.002326 0.000000 4.999561 0.998669 0.000000 4.999561 1.998690 0.000000 4.999561 2.998696 0.000000 4.999560 3.999111 0.000000 4.999128 4.999123 0.000000 4.999163 5.999132 0.000000 4.999559 6.999144 0.000000 4.999560 7.999561 0.000000 4.999559 8.999561 0.000000 4.999560 9.999561 0.000000 4.999560 11.000001 0.000000 4.999561 12.000439 0.000000 4.999561 13.000439 0.000000 4.999561 14.000439 0.000000 4.999561 15.000439 0.000000 4.999561 16.000440 0.000000 4.999561 17.000440 0.000000 4.999561 18.000440 0.000000 4.999561 19.000661 0.000000 5.999562 -0.001089 0.000000 5.999562 0.999160 0.000000 5.999562 1.999553 0.000000 5.999562 2.999560 0.000000 5.999562 3.999560 0.000000 5.999134 4.999560 0.000000 5.999168 5.999561 0.000000 5.999559 6.999961 0.000000 5.999561 7.999999 0.000000 5.999559 9.000000 0.000000 5.999561 10.000001 0.000000 5.999560 11.000438 0.000000 5.999561 12.000439 0.000000 5.999561 13.000439 0.000000 5.999561 14.000439 0.000000 5.999561 15.000439 0.000000 5.999561 16.000440 0.000000 5.999561 17.000440 0.000000 5.999561 18.000440 0.000000 5.999561 19.000661 0.000000 6.999562 -0.000661 0.000000 6.999562 0.999560 0.000000 6.999562 1.999560 0.000000 6.999562 2.999560 0.000000 6.999562 3.999561 0.000000 6.999552 4.999561 0.000000 6.999552 5.999561 0.000000 6.999560 6.999562 0.000000 6.999561 7.999562 0.000000 6.999560 8.999999 0.000000 6.999561 10.000001 0.000000 6.999561 11.000438 0.000000 6.999561 12.000439 0.000000 6.999561 13.000439 0.000000 6.999561 14.000439 0.000000 6.999561 15.000439 0.000000 6.999561 16.000440 0.000000 6.999561 17.000440 0.000000 6.999561 18.000440 0.000000 6.999561 19.000661 0.000000 7.999562 -0.000661 0.000000 7.999562 0.999560 0.000000 7.999562 1.999560 0.000000 7.999562 2.999560 0.000000 7.999563 3.999561 0.000000 7.999558 4.999561 0.000000 7.999558 5.999561 0.000000 7.999561 6.999561 0.000000 7.999562 7.999562 0.000000 7.999561 8.999999 0.000000 7.999561 10.000001 0.000000 7.999561 11.000438 0.000000 7.999561 12.000439 0.000000 7.999561 13.000439 0.000000 7.999561 14.000439 0.000000 7.999561 15.000439 0.000000 7.999561 16.000440 0.000000 7.999561 17.000440 0.000000 7.999561 18.000440 0.000000 7.999561 19.000661 0.000000 8.999562 -0.000661 0.000000 8.999562 0.999560 0.000000 8.999562 1.999560 0.000000 8.999562 2.999560 0.000000 8.999563 3.999561 0.000000 8.999559 4.999561 0.000000 8.999560 5.999561 0.000000 8.999562 6.999561 0.000000 8.999562 7.999562 0.000000 8.999562 9.000000 0.000000 8.999562 10.000001 0.000000 8.999562 11.000438 0.000000 8.999562 12.000439 0.000000 8.999562 13.000439 0.000000 8.999562 14.000439 0.000000 8.999562 15.000439 0.000000 8.999562 16.000440 0.000000 8.999562 17.000440 0.000000 8.999562 18.000440 0.000000 8.999562 19.000661 0.000000 9.999563 -0.000661 0.000000 9.999563 0.999560 0.000000 9.999563 1.999560 0.000000 9.999563 2.999560 0.000000 9.999563 3.999561 0.000000 9.999561 4.999561 0.000000 9.999561 5.999561 0.000000 9.999563 6.999561 0.000000 9.999562 7.999562 0.000000 9.999562 9.000000 0.000000 9.999562 10.000001 0.000000 9.999562 11.000438 0.000000 9.999562 12.000439 0.000000 9.999562 13.000439 0.000000 9.999562 14.000439 0.000000 9.999562 15.000439 0.000000 9.999562 16.000440 0.000000 9.999562 17.000440 0.000000 9.999562 18.000440 0.000000 9.999562 19.000661 0.000000 10.999563 -0.000661 0.000000 10.999563 0.999560 0.000000 10.999563 1.999560 0.000000 10.999563 2.999560 0.000000 10.999564 3.999561 0.000000 10.999566 4.999561 0.000000 10.999566 5.999561 0.000000 10.999564 6.999561 0.000000 10.999563 7.999562 0.000000 10.999564 9.000000 0.000000 10.999562 10.000001 0.000000 10.999562 11.000438 0.000000 10.999562 12.000439 0.000000 10.999562 13.000439 0.000000 10.999562 14.000439 0.000000 10.999562 15.000439 0.000000 10.999562 16.000440 0.000000 10.999562 17.000440 0.000000 10.999562 18.000440 0.000000 10.999562 19.000661 0.000000 11.999563 -0.000661 0.000000 11.999563 0.999560 0.000000 11.999563 1.999560 0.000000 11.999563 2.999560 0.000000 11.999564 3.999561 0.000000 11.999566 4.999561 0.000000 11.999566 5.999561 0.000000 11.999564 6.999561 0.000000 11.999563 7.999562 0.000000 11.999564 9.000000 0.000000 11.999563 10.000001 0.000000 11.999563 11.000438 0.000000 11.999563 12.000439 0.000000 11.999563 13.000439 0.000000 11.999563 14.000439 0.000000 11.999563 15.000439 0.000000 11.999563 16.000440 0.000000 11.999563 17.000440 0.000000 11.999563 18.000440 0.000000 11.999563 19.000661 0.000000 12.999564 -0.000661 0.000000 12.999564 0.999560 0.000000 12.999564 1.999560 0.000000 12.999564 2.999560 0.000000 12.999564 3.999561 0.000000 12.999566 4.999561 0.000000 12.999566 5.999561 0.000000 12.999565 6.999561 0.000000 12.999564 7.999562 0.000000 12.999565 9.000000 0.000000 12.999563 10.000001 0.000000 12.999563 11.000438 0.000000 12.999563 12.000439 0.000000 12.999563 13.000439 0.000000 12.999563 14.000439 0.000000 12.999563 15.000439 0.000000 12.999563 16.000440 0.000000 12.999563 17.000440 0.000000 12.999563 18.000440 0.000000 12.999563 19.000661 0.000000 13.999564 -0.000661 0.000000 13.999564 0.999560 0.000000 13.999564 1.999560 0.000000 13.999564 2.999560 0.000000 13.999564 3.999561 0.000000 13.999566 4.999561 0.000000 13.999566 5.999561 0.000000 13.999565 6.999561 0.000000 13.999564 7.999562 0.000000 13.999565 9.000000 0.000000 13.999563 10.000001 0.000000 13.999563 11.000438 0.000000 13.999563 12.000439 0.000000 13.999563 13.000439 0.000000 13.999563 14.000439 0.000000 13.999563 15.000439 0.000000 13.999563 16.000440 0.000000 13.999563 17.000440 0.000000 13.999563 18.000440 0.000000 13.999563 19.000661 0.000000 14.999564 -0.000661 0.000000 14.999564 0.999560 0.000000 14.999564 1.999560 0.000000 14.999564 2.999560 0.000000 14.999565 3.999561 0.000000 14.999567 4.999561 0.000000 14.999567 5.999561 0.000000 14.999565 6.999561 0.000000 14.999564 7.999562 0.000000 14.999565 9.000000 0.000000 14.999564 10.000001 0.000000 14.999564 11.000438 0.000000 14.999564 12.000439 0.000000 14.999564 13.000439 0.000000 14.999564 14.000439 0.000000 14.999564 15.000439 0.000000 14.999564 16.000440 0.000000 14.999564 17.000440 0.000000 14.999564 18.000440 0.000000 14.999564 19.000661 0.000000 15.999564 -0.000661 0.000000 15.999564 0.999560 0.000000 15.999564 1.999560 0.000000 15.999564 2.999560 0.000000 15.999565 3.999561 0.000000 15.999567 4.999561 0.000000 15.999567 5.999561 0.000000 15.999566 6.999561 0.000000 15.999564 7.999562 0.000000 15.999566 9.000000 0.000000 15.999565 10.000001 0.000000 15.999565 11.000438 0.000000 15.999565 12.000439 0.000000 15.999565 13.000439 0.000000 15.999565 14.000439 0.000000 15.999564 15.000439 0.000000 15.999564 16.000440 0.000000 15.999564 17.000440 0.000000 15.999564 18.000440 0.000000 15.999564 19.000661 0.000000 16.999565 -0.000661 0.000000 16.999565 0.999560 0.000000 16.999565 1.999560 0.000000 16.999565 2.999560 0.000000 16.999565 3.999561 0.000000 16.999567 4.999561 0.000000 16.999567 5.999561 0.000000 16.999566 6.999561 0.000000 16.999565 7.999562
[...]
      <PointData Vectors="vector">
        <DataArray type="Float32" Name="Velocity" NumberOfComponents="3" format="ascii">
-0.015000 -0.009000 0.000000 -0.015000 -0.006000 0.000000 -0.015000 -0.006000 0.000000 -0.015000 -0.006000 0.000000 -0.021000 -0.006000 0.000000 -0.021000 -0.006000 0.000000 -0.021000 -0.006000 0.000000 -0.021000 -0.006000 0.000000 -0.015000 -0.006000 0.000000 -0.021000 0.000000 0.000000 -0.015000 0.000000 0.000000 -0.015000 0.006000 0.000000 -0.015000 0.006000 0.000000 -0.015000 0.006000 0.000000 -0.015000 0.006000 0.000000 -0.015000 0.006000 0.000000 -0.015000 0.006000 0.000000 -0.015000 0.006000 0.000000 -0.015000 0.006000 0.000000 -0.015000 0.009000 0.000000 -0.006000 -0.009000 0.000000 -0.006000 -0.006000 0.000000 -0.006000 -0.006000 0.000000 -0.006000 -0.006000 0.000000 -0.012000 -0.006000 0.000000 -0.018000 -0.006000 0.000000 -0.018000 -0.006000 0.000000 -0.012000 -0.006000 0.000000 -0.006000 -0.006000 0.000000 -0.012000 0.000000 0.000000 -0.006000 0.000000 0.000000 -0.006000 0.006000 0.000000 -0.006000 0.006000 0.000000 -0.006000 0.006000 0.000000 -0.006000 0.006000 0.000000 -0.006000 0.006000 0.000000 -0.006000 0.006000 0.000000 -0.006000 0.006000 0.000000 -0.006000 0.006000 0.000000 -0.006000 0.009000 0.000000 -0.006000 -0.009000 0.000000 -0.006000 -0.006000 0.000000 -0.006000 -0.006000 0.000000 -0.006000 -0.006000 0.000000 -0.006000 -0.006000 0.000000 -0.012000 -0.006000 0.000000 -0.012000 -0.006000 0.000000 -0.012000 -0.006000 0.000000 -0.006000 -0.006000 0.000000 -0.012000 0.000000 0.000000 -0.006000 0.000000 0.000000 -0.006000 0.006000 0.000000 -0.006000 0.006000 0.000000 -0.006000 0.006000 0.000000 -0.006000 0.006000 0.000000 -0.006000 0.006000 0.000000 -0.006000 0.006000 0.000000 -0.006000 0.006000 0.000000 -0.006000 0.006000 0.000000 -0.006000 0.009000 0.000000 -0.006000 -0.009000 0.000000 -0.006000 -0.006000 0.000000 -0.006000 -0.006000 0.000000 -0.006000 -0.006000 0.000000 -0.006000 -0.006000 0.000000 -0.012000 -0.006000 0.000000 -0.012000 -0.006000 0.000000 -0.012000 -0.006000 0.000000 -0.006000 -0.006000 0.000000 -0.012000 -0.000000 0.000000 -0.006000 -0.000000 0.000000 -0.006000 0.006000 0.000000 -0.006000 0.006000 0.000000 -0.006000 0.006000 0.000000 -0.006000 0.006000 0.000000 -0.006000 0.006000 0.000000 -0.006000 0.006000 0.000000 -0.006000 0.006000 0.000000 -0.006000 0.006000 0.000000 -0.006000 0.009000 0.000000 -0.006000 -0.009000 0.000000 -0.006000 -0.006000 0.000000 -0.006000 -0.006000 0.000000 -0.006000 -0.006000 0.000000 -0.006000 -0.005999 0.000000 -0.012000 -0.006000 0.000000 -0.012000 -0.005999 0.000000 -0.006000 -0.006000 0.000000 -0.006000 -0.006000 0.000000 -0.006000 0.000000 0.000000 -0.006000 0.000000 0.000000 -0.006000 0.006000 0.000000 -0.006000 0.006000 0.000000 -0.006000 0.006000 0.000000 -0.006000 0.006000 0.000000 -0.006000 0.006000 0.000000 -0.006000 0.006000 0.000000 -0.006000 0.006000 0.000000 -0.006000 0.006000 0.000000 -0.006000 0.009000 0.000000 -0.006000 -0.033000 0.000000 -0.006000 -0.018000 0.000000 -0.006000 -0.018000 0.000000 -0.006000 -0.018000 0.000000 -0.006000 -0.012001 0.000000 -0.012001 -0.012001 0.000000 -0.012000 -0.012001 0.000000 -0.006000 -0.012000 0.000000 -0.006000 -0.006000 0.000000 -0.006000 -0.006000 0.000000 -0.006000 -0.006000 0.000000 -0.006000 -0.000000 0.000000 -0.006000 0.006000 0.000000 -0.006000 0.006000 0.000000 -0.006000 0.006000 0.000000 -0.006000 0.006000 0.000000 -0.006000 0.006000 0.000000 -0.006000 0.006000 0.000000 -0.006000 0.006000 0.000000 -0.006000 0.009000 0.000000 -0.006000 -0.015000 0.000000 -0.006000 -0.012000 0.000000 -0.006000 -0.006000 0.000000 -0.006000 -0.006000 0.000000 -0.006000 -0.005999 0.000000 -0.012000 -0.006000 0.000000 -0.012000 -0.005999 0.000000 -0.006000 -0.000000 0.000000 -0.006000 0.000000 0.000000 -0.006000 0.000000 0.000000 -0.006000 0.000000 0.000000 -0.006000 0.006000 0.000000 -0.006000 0.006000 0.000000 -0.006000 0.006000 0.000000 -0.006000 0.006000 0.000000 -0.006000 0.006000 0.000000 -0.006000 0.006000 0.000000 -0.006000 0.006000 0.000000 -0.006000 0.006000 0.000000 -0.006000 0.009000 0.000000 -0.006000 -0.009000 0.000000 -0.006000 -0.006000 0.000000 -0.006000 -0.006000 0.000000 -0.006000 -0.006000 0.000000 -0.006000 -0.006000 0.000000 -0.006000 -0.006000 0.000000 -0.006000 -0.006000 0.000000 -0.006000 -0.006000 0.000000 -0.006000 -0.006000 0.000000 -0.006000 -0.000000 0.000000 -0.006000 0.000000 0.000000 -0.006000 0.006000 0.000000 -0.006000 0.006000 0.000000 -0.006000 0.006000 0.000000 -0.006000 0.006000 0.000000 -0.006000 0.006000 0.000000 -0.006000 0.006000 0.000000 -0.006000 0.006000 0.000000 -0.006000 0.006000 0.000000 -0.006000 0.009000 0.000000 -0.006000 -0.009000 0.000000 -0.006000 -0.006000 0.000000 -0.006000 -0.006000 0.000000 -0.006000 -0.006000 0.000000 -0.006000 -0.006000 0.000000 -0.006000 -0.006000 0.000000 -0.006000 -0.006000 0.000000 -0.006000 -0.006000 0.000000 -0.006000 -0.006000 0.000000 -0.006000 0.000000 0.000000 -0.006000 0.000000 0.000000 -0.006000 0.006000 0.000000 -0.006000 0.006000 0.000000 -0.006000 0.006000 0.000000 -0.006000 0.006000 0.000000 -0.006000 0.006000 0.000000 -0.006000 0.006000 0.000000 -0.006000 0.006000 0.000000 -0.006000 0.006000 0.000000 -0.006000 0.009000 0.000000 -0.006000 -0.009000 0.000000 -0.006000 -0.006000 0.000000 -0.006000 -0.006000 0.000000 -0.006000 -0.006000 0.000000 -0.006000 -0.006000 0.000000 -0.006000 -0.006000 0.000000 -0.006000 -0.006000 0.000000 -0.006000 -0.006000 0.000000 -0.006000 -0.006000 0.000000 -0.006000 0.000000 0.000000 -0.006000 0.000000 0.000000 -0.006000 0.006000 0.000000 -0.006000 0.006000 0.000000 -0.006000 0.006000 0.000000 -0.006000 0.006000 0.000000 -0.006000 0.006000 0.000000 -0.006000 0.006000 0.000000 -0.006000 0.006000 0.000000 -0.006000 0.006000 0.000000 -0.006000 0.009000 0.000000 -0.006000 -0.009000 0.000000 -0.006000 -0.006000 0.000000 -0.006000 -0.006000 0.000000 -0.006000 -0.006000 0.000000 -0.006000 -0.006000 0.000000 -0.006000 -0.006000 0.000000 -0.006000 -0.006000 0.000000 -0.006000 -0.006000 0.000000 -0.006000 -0.006000 0.000000 -0.006000 -0.000000 0.000000 -0.006000 0.000000 0.000000 -0.006000 0.006000 0.000000 -0.006000 0.006000 0.000000 -0.006000 0.006000 0.000000 -0.006000 0.006000 0.000000 -0.006000 0.006000 0.000000 -0.006000 0.006000 0.000000 -0.006000 0.006000 0.000000 -0.006000 0.006000 0.000000 -0.006000 0.009000 0.000000 -0.006000 -0.009000 0.000000 -0.006000 -0.006000 0.000000 -0.006000 -0.006000 0.000000 -0.006000 -0.006000 0.000000 -0.006000 -0.006000 0.000000 -0.006000 -0.006000 0.000000 -0.006000 -0.006000 0.000000 -0.006000 -0.006000 0.000000 -0.006000 -0.006000 0.000000 -0.006000 0.000000 0.000000 -0.006000 0.000000 0.000000 -0.006000 0.006000 0.000000 -0.006000 0.006000 0.000000 -0.006000 0.006000 0.000000 -0.006000 0.006000 0.000000 -0.006000 0.006000 0.000000 -0.006000 0.006000 0.000000 -0.006000 0.006000 0.000000 -0.006000 0.006000 0.000000 -0.006000 0.009000 0.000000 -0.006000 -0.009000 0.000000 -0.006000 -0.006000 0.000000 -0.006000 -0.006000 0.000000 -0.006000 -0.006000 0.000000 -0.006000 -0.006000 0.000000 -0.006000 -0.006000 0.000000 -0.006000 -0.006000 0.000000 -0.006000 -0.006000 0.000000 -0.006000 -0.006000 0.000000 -0.006000 0.000000 0.000000 -0.006000 0.000000 0.000000 -0.006000 0.006000 0.000000 -0.006000 0.006000 0.000000 -0.006000 0.006000 0.000000 -0.006000 0.006000 0.000000 -0.006000 0.006000 0.000000 -0.006000 0.006000 0.000000 -0.006000 0.006000 0.000000 -0.006000 0.006000 0.000000 -0.006000 0.009000 0.000000 -0.006000 -0.009000 0.000000 -0.006000 -0.006000 0.000000 -0.006000 -0.006000 0.000000 -0.006000 -0.006000 0.000000 -0.006000 -0.006000 0.000000 -0.006000 -0.006000 0.000000 -0.006000 -0.006000 0.000000 -0.006000 -0.006000 0.000000 -0.006000 -0.006000 0.000000 -0.006000 0.000000 0.000000 -0.006000 0.000000 0.000000 -0.006000 0.006000 0.000000 -0.006000 0.006000 0.000000 -0.006000 0.006000 0.000000 -0.006000 0.006000 0.000000 -0.006000 0.006000 0.000000 -0.006000 0.006000 0.000000 -0.006000 0.006000 0.000000 -0.006000 0.006000 0.000000 -0.006000 0.009000 0.000000 -0.006000 -0.009000 0.000000 -0.006000 -0.006000 0.000000 -0.006000 -0.006000 0.000000 -0.006000 -0.006000 0.000000 -0.006000 -0.006000 0.000000 -0.006000 -0.006000 0.000000 -0.006000 -0.006000 0.000000 -0.006000 -0.006000 0.000000 -0.006000 -0.006000 0.000000 -0.006000 0.000000 0.000000 -0.006000 0.000000 0.000000 -0.006000 0.006000 0.000000 -0.006000 0.006000 0.000000 -0.006000 0.006000 0.000000 -0.006000 0.006000 0.000000 -0.006000 0.006000 0.000000 -0.006000 0.006000 0.000000 -0.006000 0.006000 0.000000 -0.006000 0.006000 0.000000 -0.006000 0.009000 0.000000 -0.006000 -0.009000 0.000000 -0.006000 -0.006000 0.000000 -0.006000 -0.006000 0.000000 -0.006000 -0.006000 0.000000 -0.006000 -0.006000 0.000000 -0.006000 -0.006000 0.000000 -0.006000 -0.006000 0.000000 -0.006000 -0.006000 0.000000 -0.006000 -0.006000 0.000000 -0.006000 0.000000 0.000000 -0.006000 0.000000 0.000000 -0.006000 0.006000 0.000000 -0.006000 0.006000 0.000000 -0.006000 0.006000 0.000000 -0.006000 0.006000 0.000000 -0.006000 0.006000 0.000000 -0.006000 0.006000 0.000000 -0.006000 0.006000 0.000000 -0.006000 0.006000 0.000000 -0.006000 0.009000 0.000000 -0.006000 -0.009000 0.000000 -0.006000 -0.006000 0.000000 -0.006000 -0.006000 0.000000 -0.006000 -0.006000 0.000000 -0.006000 -0.006000 0.000000 -0.006000 -0.006000 0.000000 -0.006000 -0.006000 0.000000 -0.006000 -0.006000 0.000000 -0.006000 -0.006000 0.000000 -0.006000 0.000000 0.000000 -0.006000 0.000000 0.000000 -0.006000 0.006000 0.000000 -0.006000 0.006000 0.000000 -0.006000 0.006000 0.000000 -0.006000 0.006000 0.000000 -0.006000 0.006000 0.000000 -0.006000 0.006000 0.000000 -0.006000 0.006000 0.000000 -0.006000 0.006000 0.000000 -0.006000 0.009000 0.000000 -0.006000 -0.009000 0.000000 -0.006000 -0.006000 0.000000 -0.006000 -0.006000 0.000000 -0.006000 -0.006000 0.000000 -0.006000 -0.006000 0.000000 -0.006000 -0.006000 0.000000 -0.006000 -0.006000 0.000000 -0.006000 -0.006000 0.000000 -0.006000 -0.006000 0.000000 -0.006000 0.000000 0.000000 -0.006000 0.000000 0.000000 -0.006000 0.006000 0.000000 -0.006000 0.006000 0.000000 -0.006000 0.006000 0.000000 -0.006000 0.006000 0.000000 -0.006000 0.006000 0.000000 -0.006000 0.006000 0.000000 -0.006000 0.006000 0.000000 -0.006000 0.006000 0.000000 -0.006000 0.009000 0.000000 -0.006000 -0.009000 0.000000 -0.006000 -0.006000 0.000000 -0.006000 -0.006000 0.000000 -0.006000 -0.006000 0.000000 -0.006000 -0.006000 0.000000 -0.006000 -0.006000 0.000000 -0.006000 -0.006000 0.000000 -0.006000 -0.006000 0.000000 -0.006000 -0.006000 0.000000 -0.006000 0.000000 0.000000 -0.006000 0.000000 0.000000 -0.006000 0.006000 0.000000 -0.006000 0.006000 0.000000 -0.006000 0.006000 0.000000 -0.006000 0.006000 0.000000 -0.006000 0.006000 0.000000 -0.006000 0.006000 0.000000 -0.006000 0.006000 0.000000 -0.006000 0.006000 0.000000 -0.006000 0.009000 0.000000 -0.006000 -0.009000 0.000000 -0.006000 -0.006000 0.000000 -0.006000 -0.006000 0.000000 -0.006000 -0.006000 0.000000 -0.006000 -0.006000 0.000000 -0.006000 -0.006000 0.000000 -0.006000 -0.006000 0.000000 -0.006000 -0.006000 0.000000 -0.006000 -0.006000 0.000000 -0.006000 0.000000 0.000000 -0.006000 0.000000 0.000000 -0.006000 0.006000 0.000000 -0.006000 0.006000 0.000000 -0.006000 0.006000 0.000000 -0.006000 0.006000 0.000000 -0.006000 0.006000 0.000000 -0.006000 0.006000 0.000000 -0.006000 0.006000 0.000000 -0.006000 0.006000 0.000000 -0.006000 0.009000 0.000000 -0.006000 -0.009000 0.000000 -0.006000 -0.006000 0.000000 -0.006000 -0.006000 0.000000 -0.006000 -0.006000 0.000000 -0.006000 -0.006000 0.000000 -0.006000 -0.006000 0.000000 -0.006000 -0.006000 0.000000 -0.006000 -0.006000 0.000000 -0.006000 -0.006000 0.000000 -0.006000 0.000000 0.000000 -0.006000 0.000000 0.000000 -0.006000 0.006000 0.000000 -0.006000 0.006000 0.000000 -0.006000 0.006000 0.000000 -0.006000 0.006000 0.000000 -0.006000 0.006000 0.000000 -0.006000 0.006000 0.000000 -0.006000 0.006000 0.000000 -0.006000 0.006000 0.000000 -0.006000 0.009000 0.000000 -0.006000 -0.009000 0.000000 -0.006000 -0.006000 0.000000 -0.006000 -0.006000 0.000000 -0.006000 -0.006000 0.000000 -0.006000 -0.006000 0.000000 -0.006000 -0.006000 0.000000 -0.006000 -0.006000 0.000000 -0.006000 -0.006000 0.000000 -0.006000 -0.006000 0.000000 -0.006000 0.000000 0.000000 -0.006000 0.000000 0.000000 -0.006000 0.006000 0.000000 -0.006000 0.006000 0.000000 -0.006000 0.006000 0.000000 -0.006000 0.006000 0.000000 -0.006000 0.006000 0.000000 -0.006000 0.006000 0.000000 -0.006000 0.006000 0.000000 -0.006000 0.006000 0.000000 -0.006000 0.009000 0.000000 -0.006000 -0.009000 0.000000 -0.006000 -0.006000 0.000000 -0.006000 -0.006000 0.000000 -0.006000 -0.006000 0.000000 -0.006000 -0.006000 0.000000 -0.006000 -0.006000 0.000000 -0.006000 -0.006000 0.000000 -0.006000 -0.006000 0.000000 -0.006000 -0.006000 0.000000 -0.006000 0.000000 0.000000 -0.006000 0.000000 0.000000 -0.006000 0.006000 0.000000 -0.006000 0.006000 0.000000 -0.006000 0.006000 0.000000 -0.006000 0.006000 0.000000 -0.006000 0.006000 0.000000 -0.006000 0.006000 0.000000 -0.006000 0.006000 0.000000 -0.006000 0.006000 0.000000 -0.006000 0.009000 0.000000 -0.006000 -0.009000 0.000000 -0.006000 -0.006000 0.000000 -0.006000 -0.006000 0.000000 -0.006000 -0.006000 0.000000 -0.006000 -0.006000 0.000000 -0.006000 -0.006000 0.000000 -0.006000 -0.006000 0.000000 -0.006000 -0.006000 0.000000 -0.006000 -0.006000 0.000000 -0.006000 0.000000 0.000000 -0.006000 0.000000 0.000000 -0.006000 0.006000 0.000000 -0.006000 0.006000 0.000000 -0.006000 0.006000 0.000000 -0.006000 0.006000 0.000000 -0.006000 0.006000 0.000000 -0.006000 0.006000 0.000000 -0.006000 0.006000 0.000000 -0.006000 0.006000 0.000000 -0.006000 0.009000 0.000000 -0.006000 -0.009000 0.000000 -0.006000 -0.006000 0.000000 -0.006000 -0.006000 0.000000 -0.006000 -0.006000 0.000000 -0.006000 -0.006000 0.000000 -0.006000 -0.006000 0.000000 -0.006000 -0.006000 0.000000 -0.006000 -0.006000 0.000000 -0.006000 -0.006000 0.000000 -0.006000 0.000000 0.000000 -0.006000 0.000000 0.000000 -0.006000 0.006000 0.000000 -0.006000 0.006000 0.000000 -0.006000 0.006000 0.000000 -0.006000 0.006000 0.000000 -0.006000 0.006000 0.000000 -0.006000 0.006000 0.000000 -0.006000 0.006000 0.000000 -0.006000 0.006000 0.000000 -0.006000 0.009000 0.000000 -0.006000 -0.009000 0.000000 -0.006000 -0.006000 0.000000 -0.006000 -0.006000 0.000000 -0.006000 -0.006000 0.000000 -0.006000 -0.006000 0.000000 -0.006000 -0.006000 0.000000 -0.006000 -0.006000 0.000000 -0.006000 -0.006000 0.000000 -0.006000 -0.006000 0.000000 -0.006000 0.000000 0.000000 -0.006000 0.000000 0.000000 -0.006000 0.006000 0.000000 -0.006000 0.006000 0.000000 -0.006000 0.006000 0.000000 -0.006000 0.006000 0.000000 -0.006000 0.006000 0.000000 -0.006000 0.006000 0.000000 -0.006000 0.006000 0.000000 -0.006000 0.006000 0.000000 -0.006000 0.009000 0.000000 -0.006000 -0.009000 0.000000 -0.006000 -0.006000 0.000000 -0.006000 -0.006000 0.000000 -0.006000 -0.006000 0.000000 -0.006000 -0.006000 0.000000 -0.006000 -0.006000 0.000000 -0.006000 -0.006000 0.000000 -0.006000 -0.006000 0.000000 -0.006000 -0.006000 0.000000 -0.006000 0.000000 0.000000 -0.006000 0.000000 0.000000 -0.006000 0.006000 0.000000 -0.006000 0.006000 0.000000 -0.006000 0.006000 0.000000 -0.006000 0.006000 0.000000 -0.006000 0.006000 0.000000 -0.006000 0.006000 0.000000 -0.006000 0.006000 0.000000 -0.006000 0.006000 0.000000 -0.006000 0.009000 0.000000 -0.006000 -0.009000 0.000000 -0.006000 -0.006000 0.000000 -0.006000 -0.006000 0.000000 -0.006000 -0.006000 0.000000 -0.006000 -0.006000 0.000000 -0.006000 -0.006000 0.000000 -0.006000 -0.006000 0.000000 -0.006000 -0.006000 0.000000 -0.006000 -0.006000 0.000000 -0.006000 0.000000 0.000000 -0.006000 0.000000 0.000000 -0.006000 0.006000 0.000000 -0.006000 0.006000 0.000000 -0.006000 0.006000 0.000000 -0.006000 0.006000 0.000000 -0.006000 0.006000 0.000000 -0.006000 0.006000 0.000000 -0.006000 0.006000 0.000000 -0.006000 0.006000 0.000000 -0.006000 0.009000 0.000000 -0.006000 -0.009000 0.000000 -0.006000 -0.006000 0.000000 -0.006000 -0.006000 0.000000 -0.006000 -0.006000 0.000000 -0.006000 -0.006000 0.000000 -0.006000 -0.006000 0.000000 -0.006000 -0.006000 0.000000 -0.006000 -0.006000 0.000000 -0.006000 -0.006000 0.000000 -0.006000 0.000000 0.000000 -0.006000 0.000000 0.000000 -0.006000 0.006000 0.000000 -0.006000 0.006000 0.000000 -0.006000 0.006000 0.000000 -0.006000 0.006000 0.000000 -0.006000 0.006000 0.000000 -0.006000 0.006000 0.000000 -0.006000 0.006000 0.000000 -0.006000 0.006000 0.000000 -0.006000 0.009000 0.000000 -0.006000 -0.009000 0.000000 -0.006000 -0.006000 0.000000 -0.006000 -0.006000 0.000000 -0.006000 -0.006000 0.000000 -0.006000 -0.006000 0.000000 -0.006000 -0.006000 0.000000 -0.006000 -0.006000 0.000000 -0.006000 -0.006000 0.000000 -0.006000 -0.006000 0.000000 -0.006000 0.000000 0.000000 -0.006000 0.000000 0.000000 -0.006000 0.006000 0.000000 -0.006000 0.006000 0.000000 -0.006000 0.006000 0.000000 -0.006000 0.006000 0.000000 -0.006000 0.006000 0.000000 -0.006000 0.006000 0.000000 -0.006000 0.006000 0.000000 -0.006000 0.006000 0.000000 -0.006000 0.009000 0.000000 -0.006000 -0.009000 0.000000 -0.006000 -0.006000 0.000000 -0.006000 -0.006000 0.000000 -0.006000 -0.006000 0.000000 -0.006000 -0.006000 0.000000 -0.006000 -0.006000 0.000000 -0.006000 -0.006000 0.000000 -0.006000 -0.006000 0.000000 -0.006000 -0.006000 0.000000 -0.006000 0.000000 0.000000 -0.006000 0.000000 0.000000 -0.006000 0.006000 0.000000 -0.006000 0.006000 0.000000 -0.006000 0.006000 0.000000 -0.006000 0.006000 0.000000 -0.006000 0.006000 0.000000 -0.006000 0.006000 0.000000 -0.006000 0.006000 0.000000 -0.006000 0.006000 0.000000 -0.006000 0.009000 0.000000 -0.006000 -0.009000 0.000000 -0.006000 -0.006000 0.000000 -0.006000 -0.006000 0.000000 -0.006000 -0.006000 0.000000 -0.006000 -0.006000 0.000000 -0.006000 -0.006000 0.000000 -0.006000 -0.006000 0.000000 -0.006000 -0.006000 0.000000 -0.006000 -0.006000 0.000000 -0.006000 0.000000 0.000000 -0.006000 0.000000 0.000000 -0.006000 0.006000 0.000000 -0.006000 0.006000 0.000000 -0.006000 0.006000 0.000000 -0.006000 0.006000 0.000000 -0.006000 0.006000 0.000000 -0.006000 0.006000 0.000000 -0.006000 0.006000 0.000000 -0.006000 0.006000 0.000000 -0.006000 0.009000 0.000000 -0.006000 -0.009000 0.000000 -0.006000 -0.006000 0.000000 -0.006000 -0.006000 0.000000 -0.006000 -0.006000 0.000000 -0.006000 -0.006000 0.000000 -0.006000 -0.006000 0.000000 -0.006000 -0.006000 0.000000 -0.006000 -0.006000 0.000000 -0.006000 -0.006000 0.000000 -0.006000 0.000000 0.000000 -0.006000 0.000000 0.000000 -0.006000 0.006000 0.000000 -0.006000 0.006000 0.000000 -0.006000 0.006000 0.000000 -0.006000 0.006000 0.000000 -0.006000 0.006000 0.000000 -0.006000 0.006000 0.000000 -0.006000 0.006000 0.000000 -0.006000 0.006000 0.000000 -0.006000 0.009000 0.000000 -0.006000 -0.009000 0.000000 -0.006000 -0.006000 0.000000 -0.006000 -0.006000 0.000000 -0.006000 -0.006000 0.000000 -0.006000 -0.006000 0.000000 0.000000 -0.006000 0.000000 0.000000 -0.006000 0.000000 -0.006000 -0.006000 0.000000 -0.006000 -0.006000 0.000000 -0.006000 0.000000 0.000000 -0.006000 0.000000 0.000000 -0.006000 0.006000 0.000000 -0.006000 0.006000 0.000000 -0.006000 0.006000 0.000000 -0.006000 0.006000 0.000000 -0.006000 0.006000 0.000000 -0.006000 0.006000 0.000000 -0.006000 0.006000 0.000000 -0.006000 0.006000 0.000000 -0.006000 0.009000 0.000000 -0.006000 -0.009000 0.000000 -0.006000 -0.006000 0.000000 -0.006000 -0.006000 0.000000 -0.006000 -0.006000 0.000000 -0.006000 -0.006000 0.000000 0.000000 -0.006000 0.000000 0.000000 -0.006000 0.000000 -0.006000 -0.006000 0.000000 -0.006000 -0.006000 0.000000 -0.006000 0.000000 0.000000 -0.006000 0.000000 0.000000 -0.006000 0.006000 0.000000 -0.006000 0.006000 0.000000 -0.006000 0.006000 0.000000 -0.006000 0.006000 0.000000 -0.006000 0.006000 0.000000 -0.006000 0.006000 0.000000 -0.006000 0.006000 0.000000 -0.006000 0.006