<VTKFile type="UnstructuredGrid" version="0.1" byte_order="LittleEndian">
  <UnstructuredGrid>
    <Piece NumberOfPoints="2000" NumberOfCells="0">
      <Points>
        <DataArray name="Position" type="Float32" NumberOfComponents="3" format="ascii">
-0.007644 -0.004589 0.000000 -0.007644 0.996941 0.000000 -0.007644 1.996941 0.000000 -0.007752 2.996941 0.000000 -0.010536 3.996942 0.000000 -0.010670 4.996942 0.000000 -0.019280 5.996942 0.000000 -0.010691 6.996942 0.000000 -0.027116 7.996943 0.000000 -0.010690 9.000000 0.000000 -0.007904 10.000001 0.000000 -0.035920 11.003057 0.000000 -0.007632 12.003058 0.000000 -0.007632 13.003058 0.000000 -0.033241 14.003058 0.000000 -0.007626 15.003058 0.000000 -0.007626 16.003059 0.000000 -0.079916 17.003059 0.000000 -0.014055 18.003059 0.000000 -0.116126 19.004589 0.000000 0.996938 -0.004589 0.000000 0.996271 0.996941 0.000000 0.992566 1.996941 0.000000 0.992305 2.996941 0.000000 0.991527 3.996942 0.000000 0.990866 4.996942 0.000000 0.980706 5.996942 0.000000 0.992284 6.996942 0.000000 0.974443 7.996941 0.000000 0.992535 9.000000 0.000000 0.992258 10.000001 0.000000 0.964057 11.003057 0.000000 0.994547 12.003058 0.000000 0.995847 13.003058 0.000000 0.967153 14.003058 0.000000 0.996199 15.003058 0.000000 0.995593 16.003059 0.000000 0.920885 17.003059 0.000000 0.986119 18.003059 0.000000 0.884035 19.004589 0.000000 1.996941 -0.004589 0.000000 1.996274 0.996586 0.000000 1.995989 1.996941 0.000000 1.992307 2.996934 0.000000 1.991627 3.996941 0.000000 1.992735 4.996941 0.000000 1.980782 5.996940 0.000000 1.992314 6.996942 0.000000 1.974575 7.997257 0.000000 1.992556 9.000000 0.000000 1.992262 10.000001 0.000000 1.964125 11.003059 0.000000 1.994569 12.003058 0.000000 1.995868 13.003058 0.000000 1.967156 14.003058 0.000000 1.996234 15.003058 0.000000 1.995619 16.003059 0.000000 1.921032 17.003059 0.000000 1.986133 18.003059 0.000000 1.884485 19.004594 0.000000 2.996941 -0.004589 0.000000 2.996281 0.995621 0.000000 2.996433 1.996073 0.000000 2.992378 2.996702 0.000000 2.991739 3.996938 0.000000 2.992746 4.996939 0.000000 2.982867 5.997106 0.000000 2.993887 6.997813 0.000000 2.974802 7.998248 0.000000 2.992760 9.000000 0.000000 2.992282 10.000001 0.000000 2.964420 11.002781 0.000000 2.994570 12.003059 0.000000 2.995870 13.003068 0.000000 2.967157 14.003072 0.000000 2.996451 15.003059 0.000000 2.995619 16.003500 0.000000 2.921377 17.003059 0.000000 2.986134 18.003037 0.000000 2.885414 19.004408 0.000000 3.996941 -0.006032 0.000000 3.996287 0.994812 0.000000 3.996440 1.994960 0.000000 3.992408 2.995045 0.000000 3.991554 3.996144 0.000000 3.993876 4.998867 0.000000 3.982866 5.999119 0.000000 3.993893 6.999256 0.000000 3.974787 7.999629 0.000000 3.993887 9.000008 0.000000 3.992283 10.000014 0.000000 3.964428 11.000855 0.000000 3.995743 12.003058 0.000000 3.996393 13.003058 0.000000 3.967199 14.003058 0.000000 3.996556 15.003059 0.000000 3.996266 16.003059 0.000000 3.921381 17.003060 0.000000 3.986128 18.004010 0.000000 3.885602 19.006254 0.000000 4.996942 -0.016730 0.000000 4.996265 0.987443 0.000000 4.996929 1.990799 0.000000 4.994919 2.993153 0.000000 4.991746 3.993517 0.000000 4.993893 4.993689 0.000000 4.983129 5.993789 0.000000 4.993917 6.993878 0.000000 4.974830 7.993727 0.000000 4.993889 8.996923 0.000000 4.992300 9.999225 0.000000 4.964364 10.999508 0.000000 4.995743 12.003058 0.000000 4.996393 13.003058 0.000000 4.967197 14.003058 0.000000 4.996566 15.003058 0.000000 4.996266 16.003059 0.000000 4.921380 17.003058 0.000000 4.986158 18.002994 0.000000 4.885589 19.004173 0.000000 5.996941 -0.007637 0.000000 5.996246 0.993943 0.000000 5.996944 1.994698 0.000000 5.995063 2.995044 0.000000 5.991813 3.996996 0.000000 5.993892 4.997767 0.000000 5.983212 5.999209 0.000000 5.994683 6.999206 0.000000 5.974828 8.000275 0.000000 5.993892 9.000354 0.000000 5.992503 10.000979 0.000000 5.964450 11.002439 0.000000 5.995751 12.003058 0.000000 5.996401 13.003058 0.000000 5.967186 14.003057 0.000000 5.996569 15.003059 0.000000 5.996277 16.003059 0.000000 5.921425 17.003060 0.000000 5.986163 18.004110 0.000000 5.885588 19.006107 0.000000 6.996940 -0.006082 0.000000 6.996247 0.994752 0.000000 6.996944 1.995610 0.000000 6.995064 2.996147 0.000000 6.991682 3.996148 0.000000 6.995029 4.997719 0.000000 6.983279 5.998323 0.000000 6.996697 6.999123 0.000000 6.974786 7.999293 0.000000 6.996932 8.999999 0.000000 6.994586 10.000001 0.000000 6.964566 11.002783 0.000000 6.995763 12.003058 0.000000 6.996413 13.003077 0.000000 6.967256 14.003088 0.000000 6.996580 15.003059 0.000000 6.996286 16.003435 0.000000 6.921495 17.003059 0.000000 6.986187 18.003016 0.000000 6.885675 19.004371 0.000000 7.996938 -0.004589 0.000000 7.996247 0.995955 0.000000 7.996944 1.996692 0.000000 7.995079 2.996845 0.000000 7.991615 3.996950 0.000000 7.995905 4.996943 0.000000 7.983325 5.996963 0.000000 7.996796 6.997176 0.000000 7.974833 7.997847 0.000000 7.996938 8.999999 0.000000 7.994594 10.000001 0.000000 7.964521 11.003060 0.000000 7.996930 12.003058 0.000000 7.996930 13.003058 0.000000 7.967294 14.003057 0.000000 7.996727 15.003058 0.000000 7.996927 16.003059 0.000000 7.921385 17.003059 0.000000 7.986184 18.003060 0.000000 7.885827 19.004600 0.000000 8.996939 -0.004589 0.000000 8.996240 0.996868 0.000000 8.996945 1.996942 0.000000 8.995104 2.996944 0.000000 8.991651 3.996946 0.000000 8.996932 4.997011 0.000000 8.983360 5.996942 0.000000 8.996797 6.996942 0.000000 8.974834 7.996831 0.000000 8.996939 9.000000 0.000000 8.994599 10.000001 0.000000 8.964559 11.003057 0.000000 8.996941 12.003058 0.000000 8.996939 13.003058 0.000000 8.967273 14.003058 0.000000 8.996927 15.003058 0.000000 8.996939 16.003059 0.000000 8.921388 17.003059 0.000000 8.986280 18.003059 0.000000 8.885679 19.004589 0.000000 9.996939 -0.004589 0.000000 9.996252 0.996941 0.000000 9.996945 1.996941 0.000000 9.995122 2.996941 0.000000 9.991653 3.996941 0.000000 9.996939 4.996942 0.000000 9.983371 5.996942 0.000000 9.996930 6.996942 0.000000 9.974968 7.996944 0.000000 9.996939 9.000000 0.000000 9.994601 10.000001 0.000000 9.964594 11.003057 0.000000 9.996941 12.003058 0.000000 9.996941 13.003058 0.000000 9.967300 14.003058 0.000000 9.996939 15.003058 0.000000 9.996941 16.003059 0.000000 9.921389 17.003059 0.000000 9.986256 18.003059 0.000000 9.885755 19.004589 0.000000 10.996939 -0.004589 0.000000 10.996252 0.996941 0.000000 10.996945 1.996941 0.000000 10.995212 2.996941 0.000000 10.991638 3.996942 0.000000 10.996947 4.996942 0.000000 10.983381 5.996942 0.000000 10.996947 6.996942 0.000000 10.974990 7.996943 0.000000 10.996945 9.000000 0.000000 10.994601 10.000001 0.000000 10.964579 11.003057 0.000000 10.996942 12.003058 0.000000 10.996942 13.003058 0.000000 10.967263 14.003058 0.000000 10.996942 15.003058 0.000000 10.996942 16.003059 0.000000 10.921402 17.003059 0.000000 10.985961 18.003059 0.000000 10.885718 19.004589 0.000000 11.996939 -0.004589 0.000000 11.996252 0.996941 0.000000 11.996945 1.996941 0.000000 11.995235 2.996941 0.000000 11.991681 3.996942 0.000000 11.996947 4.996942 0.000000 11.983442 5.996942 0.000000 11.996947 6.996942 0.000000 11.974987 7.996943 0.000000 11.996945 9.000000 0.000000 11.994603 10.000001 0.000000 11.964504 11.003057 0.000000 11.996942 12.003058 0.000000 11.996942 13.003058 0.000000 11.967302 14.003058 0.000000 11.996942 15.003058 0.000000 11.996942 16.003059 0.000000 11.921398 17.003059 0.000000 11.985257 18.003059 0.000000 11.885763 19.004589 0.000000 12.996939 -0.004589 0.000000 12.996253 0.996941 0.000000 12.996946 1.996941 0.000000 12.995283 2.996941 0.000000 12.991660 3.996942 0.000000 12.996947 4.996942 0.000000 12.983566 5.996942 0.000000 12.996947 6.996942 0.000000 12.974870 7.996943 0.000000 12.996946 9.000000 0.000000 12.996928 10.000001 0.000000 12.964503 11.003057 0.000000 12.996942 12.003058 0.000000 12.996942 13.003058 0.000000 12.967345 14.003058 0.000000 12.996942 15.003058 0.000000 12.996942 16.003059 0.000000 12.921400 17.003059 0.000000 12.985063 18.003059 0.000000 12.885733 19.004589 0.000000 13.996939 -0.004589 0.000000 13.996254 0.996941 0.000000 13.996946 1.996941 0.000000 13.995286 2.996941 0.000000 13.991698 3.996942 0.000000 13.996947 4.996942 0.000000 13.983531 5.996942 0.000000 13.996947 6.996942 0.000000 13.974902 7.996943 0.000000 13.996946 9.000000 0.000000 13.996938 10.000001 0.000000 13.964483 11.003057 0.000000 13.996942 12.003058 0.000000 13.996942 13.003058 0.000000 13.967407 14.003058 0.000000 13.996942 15.003058 0.000000 13.996942 16.003059 0.000000 13.921404 17.003059 0.000000 13.984345 18.003059 0.000000 13.885728 19.004589 0.000000 14.996939 -0.004589 0.000000 14.996252 0.996941 0.000000 14.996946 1.996941 0.000000 14.995296 2.996941 0.000000 14.991655 3.996942 0.000000 14.996948 4.996942 0.000000 14.983552 5.996942 0.000000 14.996948 6.996942 0.000000 14.974888 7.996943 0.000000 14.996946 9.000000 0.000000 14.996938 10.000001 0.000000 14.964602 11.003057 0.000000 14.996946 12.003058 0.000000 14.996946 13.003058 0.000000 14.967431 14.003058 0.000000 14.996943 15.003058 0.000000 14.996943 16.003059 0.000000 14.921417 17.003059 0.000000 14.984349 18.003059 0.000000 14.885687 19.004589 0.000000 15.996940 -0.004589 0.000000 15.996254 0.996941 0.000000 15.996947 1.996941 0.000000 15.995338 2.996941 0.000000 15.991671 3.996942 0.000000 15.996948 4.996942 0.000000 15.983466 5.996942 0.000000 15.996948 6.996942 0.000000 15.975040 7.996943 0.000000 15.996947 9.000000 0.000000 15.996941 10.000001 0.000000 15.964683 11.003057 0.000000 15.996948 12.003058 0.000000 15.996948 13.003058 0.000000 15.967431 14.003058 0.000000 15.996943 15.003058 0.000000 15.996943 16.003059 0.000000 15.921503 17.003059 0.000000 15.984107 18.003059 0.000000 15.885772 19.004589 0.000000 16.996940 -0.004589 0.000000 16.996254 0.996941 0.000000 16.996947 1.996941 0.000000 16.995344 2.996941 0.000000 16.991634 3.996942 0.000000 16.996948 4.996942 0.000000 16.983429 5.996942 0.000000 16.996948 6.996942 0.000000 16.975139 7.996943
[...]
      <PointData Vectors="vector">
        <DataArray type="Float32" Name="Velocity" NumberOfComponents="3" format="ascii">
-0.015000 -0.009000 0.000000 -0.015000 -0.006000 0.000000 -0.015000 -0.006000 0.000000 -0.021000 -0.006000 0.000000 -0.021000 -0.006000 0.000000 -0.021000 -0.006000 0.000000 -0.390058 -0.006000 0.000000 -0.021000 -0.006000 0.000000 -0.381004 -0.006000 0.000000 -0.021000 0.000000 0.000000 -0.021000 0.000000 0.000000 -0.432011 0.006000 0.000000 -0.015000 0.006000 0.000000 -0.015000 0.006000 0.000000 -0.513012 0.006000 0.000000 -0.015000 0.006000 0.000000 -0.015000 0.006000 0.000000 -0.795016 0.006000 0.000000 -0.453003 0.006000 0.000000 -0.999015 0.009000 0.000000 -0.006000 -0.009000 0.000000 -0.084000 -0.005976 0.000000 -0.018000 -0.006000 0.000000 -0.018000 -0.006000 0.000000 -0.180003 -0.006000 0.000000 -0.018000 -0.006000 0.000000 -0.459049 -0.005999 0.000000 -0.018000 -0.006000 0.000000 -0.546003 -0.006092 0.000000 -0.018000 0.000000 0.000000 -0.018000 0.000000 0.000000 -0.506998 0.006000 0.000000 -0.018000 0.006000 0.000000 -0.018000 0.006000 0.000000 -0.486013 0.006000 0.000000 -0.018000 0.006000 0.000000 -0.018000 0.006000 0.000000 -0.834006 0.006000 0.000000 -0.396005 0.006000 0.000000 -0.990037 0.008998 0.000000 -0.006000 -0.009000 0.000000 -0.077999 -0.011879 0.000000 -0.017979 -0.005995 0.000000 -0.018022 -0.005999 0.000000 -0.162002 -0.005999 0.000000 -0.017997 -0.006000 0.000000 -0.419986 -0.006085 0.000000 -0.018000 -0.006000 0.000000 -0.474017 -0.001213 0.000000 -0.018000 0.000000 0.000000 -0.018000 0.000000 0.000000 -0.456035 0.006076 0.000000 -0.018000 0.006000 0.000000 -0.018000 0.006000 0.000000 -0.527988 0.005989 0.000000 -0.018000 0.006000 0.000000 -0.018000 0.006000 0.000000 -0.828018 0.006000 0.000000 -0.402001 0.006009 0.000000 -0.882027 0.009110 0.000000 -0.006000 -0.009000 0.000000 -0.072000 -0.011967 0.000000 -0.011971 -0.011985 0.000000 -0.018030 -0.011991 0.000000 -0.267070 -0.005557 0.000000 -0.017995 -0.006009 0.000000 -0.426071 -0.002952 0.000000 -0.011998 -0.000007 0.000000 -0.458991 -0.000601 0.000000 -0.018000 -0.000000 0.000000 -0.018000 -0.000000 0.000000 -0.576006 0.003226 0.000000 -0.017990 0.006000 0.000000 -0.017966 0.006000 0.000000 -0.504064 0.006026 0.000000 -0.017967 0.006000 0.000000 -0.018003 0.012000 0.000000 -0.834005 0.005997 0.000000 -0.411005 0.004518 0.000000 -0.954017 0.006279 0.000000 -0.006000 -0.015000 0.000000 -0.077992 -0.010111 0.000000 -0.011985 -0.011912 0.000000 -0.012016 -0.011939 0.000000 -0.224978 -0.004462 0.000000 -0.012013 0.000042 0.000000 -0.347960 0.000506 0.000000 -0.011909 0.012027 0.000000 -0.447052 0.011875 0.000000 -0.012000 0.000032 0.000000 -0.018000 0.000039 0.000000 -0.507002 -0.000782 0.000000 -0.012000 0.006000 0.000000 -0.012000 0.006000 0.000000 -0.489000 0.005986 0.000000 -0.012000 0.006000 0.000000 -0.012000 0.006000 0.000000 -0.831013 0.006007 0.000000 -0.351009 0.009277 0.000000 -0.987084 0.021152 0.000000 -0.006000 -0.033000 0.000000 -0.089999 -0.032472 0.000000 -0.006000 -0.018105 0.000000 -0.155954 -0.042322 0.000000 -0.131982 -0.020669 0.000000 -0.011756 -0.024064 0.000000 -0.366498 -0.008499 0.000000 -0.010696 -0.042048 0.000000 -0.396050 -0.035555 0.000000 -0.012000 -0.006065 0.000000 -0.018000 -0.000093 0.000000 -0.477219 -0.008530 0.000000 -0.012000 0.006000 0.000000 -0.012000 0.006000 0.000000 -0.456033 0.005999 0.000000 -0.012000 0.006000 0.000000 -0.012000 0.006000 0.000000 -0.842985 0.005991 0.000000 -0.354030 0.001901 0.000000 -0.975132 0.002007 0.000000 -0.018000 -0.015019 0.000000 -0.090009 -0.009566 0.000000 -0.006000 -0.011922 0.000000 -0.144005 -0.011885 0.000000 -0.129033 -0.001818 0.000000 -0.012012 -0.005958 0.000000 -0.270061 0.012753 0.000000 -0.017990 0.000051 0.000000 -0.423193 0.010141 0.000000 -0.011987 0.006033 0.000000 -0.012003 0.000054 0.000000 -0.372643 0.009749 0.000000 -0.011999 0.006000 0.000000 -0.012000 0.006000 0.000000 -0.428976 0.005956 0.000000 -0.012000 0.006000 0.000000 -0.012000 0.006000 0.000000 -0.798029 0.006011 0.000000 -0.378020 0.010937 0.000000 -0.917985 0.022111 0.000000 -0.021000 -0.015022 0.000000 -0.078000 -0.012290 0.000000 -0.006000 -0.011997 0.000000 -0.143976 -0.011967 0.000000 -0.125965 -0.007692 0.000000 -0.006018 -0.000009 0.000000 -0.300026 0.001632 0.000000 -0.018000 0.000018 0.000000 -0.452863 0.002036 0.000000 -0.006000 -0.000000 0.000000 -0.012000 -0.000000 0.000000 -0.494234 0.002070 0.000000 -0.011973 0.006000 0.000000 -0.011959 0.006000 0.000000 -0.504089 0.006098 0.000000 -0.011955 0.006000 0.000000 -0.012002 0.012000 0.000000 -0.753019 0.005993 0.000000 -0.339082 0.003321 0.000000 -0.989981 0.005040 0.000000 -0.009000 -0.008960 0.000000 -0.087000 -0.011893 0.000000 -0.006000 -0.011980 0.000000 -0.131986 -0.011604 0.000000 -0.231027 -0.005134 0.000000 -0.017931 -0.006000 0.000000 -0.378202 -0.003373 0.000000 -0.011968 -0.000034 0.000000 -0.366344 -0.001812 0.000000 -0.006000 0.000000 0.000000 -0.012000 0.000000 0.000000 -0.501177 0.006192 0.000000 -0.006000 0.006000 0.000000 -0.006000 0.006000 0.000000 -0.435008 0.005946 0.000000 -0.006000 0.006000 0.000000 -0.006000 0.006000 0.000000 -0.777026 0.006001 0.000000 -0.350994 0.006037 0.000000 -0.939137 0.009314 0.000000 -0.018000 -0.009000 0.000000 -0.087001 -0.011392 0.000000 -0.005996 -0.006000 0.000000 -0.131989 -0.005971 0.000000 -0.288028 -0.005997 0.000000 -0.005982 -0.000000 0.000000 -0.287875 -0.005983 0.000000 -0.012000 -0.006002 0.000000 -0.479577 -0.008918 0.000000 -0.006000 0.000000 0.000000 -0.012000 0.000000 0.000000 -0.528213 0.005999 0.000000 -0.006000 0.006000 0.000000 -0.006000 0.006000 0.000000 -0.483009 0.006001 0.000000 -0.006000 0.006000 0.000000 -0.006000 0.006000 0.000000 -0.828002 0.006000 0.000000 -0.437544 0.006000 0.000000 -0.969072 0.008989 0.000000 -0.018000 -0.009000 0.000000 -0.095999 -0.005980 0.000000 -0.006000 -0.006000 0.000000 -0.126004 -0.006002 0.000000 -0.236994 -0.006003 0.000000 -0.006000 -0.006000 0.000000 -0.311983 -0.006000 0.000000 -0.006000 -0.006000 0.000000 -0.360001 -0.005930 0.000000 -0.006000 -0.000000 0.000000 -0.012000 0.000000 0.000000 -0.488736 0.006000 0.000000 -0.006000 0.006000 0.000000 -0.006000 0.006000 0.000000 -0.507012 0.006000 0.000000 -0.006000 0.006000 0.000000 -0.006000 0.006000 0.000000 -0.798003 0.006000 0.000000 -0.370634 0.006000 0.000000 -0.950804 0.009000 0.000000 -0.015000 -0.009000 0.000000 -0.081000 -0.006000 0.000000 -0.006000 -0.006000 0.000000 -0.119996 -0.006000 0.000000 -0.285022 -0.006000 0.000000 -0.006000 -0.006000 0.000000 -0.294191 -0.006000 0.000000 -0.006000 -0.006000 0.000000 -0.471239 -0.006001 0.000000 -0.006000 0.000000 0.000000 -0.012000 0.000000 0.000000 -0.473980 0.006000 0.000000 -0.006000 0.006000 0.000000 -0.006000 0.006000 0.000000 -0.494983 0.006000 0.000000 -0.006000 0.006000 0.000000 -0.006000 0.006000 0.000000 -0.741035 0.006000 0.000000 -0.215924 0.006000 0.000000 -0.993089 0.009000 0.000000 -0.012000 -0.009000 0.000000 -0.069000 -0.006000 0.000000 -0.006000 -0.006000 0.000000 -0.102001 -0.006000 0.000000 -0.182999 -0.006000 0.000000 -0.006000 -0.006000 0.000000 -0.342009 -0.006000 0.000000 -0.006000 -0.006000 0.000000 -0.329815 -0.006000 0.000000 -0.006000 0.000000 0.000000 -0.012000 0.000000 0.000000 -0.516537 0.006000 0.000000 -0.006000 0.006000 0.000000 -0.006000 0.006000 0.000000 -0.450014 0.006000 0.000000 -0.006000 0.006000 0.000000 -0.006000 0.006000 0.000000 -0.747019 0.006000 0.000000 -0.239068 0.006000 0.000000 -1.005089 0.009000 0.000000 -0.012000 -0.009000 0.000000 -0.078000 -0.006000 0.000000 -0.006000 -0.006000 0.000000 -0.090000 -0.006000 0.000000 -0.206977 -0.006000 0.000000 -0.006000 -0.006000 0.000000 -0.315258 -0.006000 0.000000 -0.006000 -0.006000 0.000000 -0.399105 -0.006000 0.000000 -0.006000 0.000000 0.000000 -0.006000 0.000000 0.000000 -0.485669 0.006000 0.000000 -0.006000 0.006000 0.000000 -0.006000 0.006000 0.000000 -0.474044 0.006000 0.000000 -0.006000 0.006000 0.000000 -0.006000 0.006000 0.000000 -0.798066 0.006000 0.000000 -0.247020 0.006000 0.000000 -0.960537 0.009000 0.000000 -0.015000 -0.009000 0.000000 -0.081000 -0.006000 0.000000 -0.006000 -0.006000 0.000000 -0.089999 -0.006000 0.000000 -0.249001 -0.006000 0.000000 -0.006000 -0.006000 0.000000 -0.470800 -0.006000 0.000000 -0.006000 -0.006000 0.000000 -0.410989 -0.006000 0.000000 -0.006000 0.000000 0.000000 -0.006000 0.000000 0.000000 -0.482644 0.006000 0.000000 -0.006000 0.006000 0.000000 -0.006000 0.006000 0.000000 -0.509924 0.006000 0.000000 -0.006000 0.006000 0.000000 -0.006000 0.006000 0.000000 -0.845935 0.006000 0.000000 -0.260076 0.006000 0.000000 -0.935884 0.009000 0.000000 -0.018000 -0.009000 0.000000 -0.075000 -0.006000 0.000000 -0.006000 -0.006000 0.000000 -0.090000 -0.006000 0.000000 -0.177000 -0.006000 0.000000 -0.006000 -0.006000 0.000000 -0.224861 -0.006000 0.000000 -0.006000 -0.006000 0.000000 -0.368970 -0.006000 0.000000 -0.006000 0.000000 0.000000 -0.006000 0.000000 0.000000 -0.540004 0.006000 0.000000 -0.006000 0.006000 0.000000 -0.006000 0.006000 0.000000 -0.495008 0.006000 0.000000 -0.006000 0.006000 0.000000 -0.006000 0.006000 0.000000 -0.846068 0.006000 0.000000 -0.225401 0.006000 0.000000 -0.999280 0.009000 0.000000 -0.018000 -0.009000 0.000000 -0.060001 -0.006000 0.000000 -0.006000 -0.006000 0.000000 -0.078000 -0.006000 0.000000 -0.171001 -0.006000 0.000000 -0.006000 -0.006000 0.000000 -0.288093 -0.006000 0.000000 -0.006000 -0.006000 0.000000 -0.456111 -0.006000 0.000000 -0.006000 0.000000 0.000000 -0.006000 0.000000 0.000000 -0.492678 0.006000 0.000000 -0.006000 0.006000 0.000000 -0.006000 0.006000 0.000000 -0.459169 0.006000 0.000000 -0.006000 0.006000 0.000000 -0.006000 0.006000 0.000000 -0.804061 0.006000 0.000000 -0.282066 0.006000 0.000000 -0.971756 0.009000 0.000000 -0.015000 -0.009000 0.000000 -0.081000 -0.006000 0.000000 -0.006000 -0.006000 0.000000 -0.072000 -0.006000 0.000000 -0.156089 -0.006000 0.000000 -0.006000 -0.006000 0.000000 -0.245841 -0.006000 0.000000 -0.006000 -0.006000 0.000000 -0.459151 -0.006000 0.000000 -0.006000 0.000000 0.000000 -0.006000 0.000000 0.000000 -0.455745 0.006000 0.000000 -0.006000 0.006000 0.000000 -0.006000 0.006000 0.000000 -0.416952 0.006000 0.000000 -0.006000 0.006000 0.000000 -0.006000 0.006000 0.000000 -0.831198 0.006000 0.000000 -0.308898 0.006000 0.000000 -0.942028 0.009000 0.000000 -0.012000 -0.009000 0.000000 -0.090001 -0.006000 0.000000 -0.006000 -0.006000 0.000000 -0.090001 -0.006000 0.000000 -0.152908 -0.006000 0.000000 -0.006000 -0.006000 0.000000 -0.315213 -0.006000 0.000000 -0.006000 -0.006000 0.000000 -0.432308 -0.006000 0.000000 -0.006000 0.000000 0.000000 -0.006000 0.000000 0.000000 -0.447278 0.006000 0.000000 -0.006000 0.006000 0.000000 -0.006000 0.006000 0.000000 -0.444019 0.006000 0.000000 -0.006000 0.006000 0.000000 -0.006000 0.006000 0.000000 -0.843031 0.006000 0.000000 -0.315912 0.006000 0.000000 -1.104542 0.009000 0.000000 -0.012000 -0.009000 0.000000 -0.065999 -0.006000 0.000000 -0.006000 -0.006000 0.000000 -0.065999 -0.006000 0.000000 -0.216012 -0.006000 0.000000 -0.006000 -0.006000 0.000000 -0.344801 -0.006000 0.000000 -0.006000 -0.006000 0.000000 -0.432105 -0.006000 0.000000 -0.006000 0.000000 0.000000 -0.006000 0.000000 0.000000 -0.611861 0.006000 0.000000 -0.006000 0.006000 0.000000 -0.006000 0.006000 0.000000 -0.450042 0.006000 0.000000 -0.006000 0.006000 0.000000 -0.006000 0.006000 0.000000 -0.815565 0.006000 0.000000 -0.343329 0.006000 0.000000 -0.982738 0.009000 0.000000 -0.012000 -0.009000 0.000000 -0.087001 -0.006000 0.000000 -0.006000 -0.006000 0.000000 -0.078001 -0.006000 0.000000 -0.161988 -0.006000 0.000000 -0.006000 -0.006000 0.000000 -0.324278 -0.006000 0.000000 -0.006000 -0.006000 0.000000 -0.429921 -0.006000 0.000000 -0.006000 0.000000 0.000000 -0.006000 0.000000 0.000000 -0.632805 0.006000 0.000000 -0.006000 0.006000 0.000000 -0.006000 0.006000 0.000000 -0.426048 0.006000 0.000000 -0.006000 0.006000 0.000000 -0.006000 0.006000 0.000000 -0.813000 0.006000 0.000000 -0.296998 0.006000 0.000000 -0.980982 0.009000 0.000000 -0.012000 -0.009000 0.000000 -0.099003 -0.006000 0.000000 -0.006000 -0.006000 0.000000 -0.084001 -0.006000 0.000000 -0.126083 -0.006000 0.000000 -0.006000 -0.006000 0.000000 -0.302955 -0.006000 0.000000 -0.006000 -0.006000 0.000000 -0.337738 -0.006000 0.000000 -0.006000 0.000000 0.000000 -0.006000 0.000000 0.000000 -0.598306 0.006000 0.000000 -0.006000 0.006000 0.000000 -0.000000 0.006000 0.000000 -0.383972 0.006000 0.000000 -0.006000 0.006000 0.000000 -0.000000 0.006000 0.000000 -0.768823 0.006000 0.000000 -0.290488 0.006000 0.000000 -1.043280 0.009000 0.000000 -0.012000 -0.009000 0.000000 -0.083996 -0.006000 0.000000 -0.006000 -0.006000 0.000000 -0.060001 -0.006000 0.000000 -0.089918 -0.006000 0.000000 -0.006000 -0.006000 0.000000 -0.356971 -0.006000 0.000000 -0.006000 -0.006000 0.000000 -0.534443 -0.006000 0.000000 -0.006000 0.000000 0.000000 -0.006000 0.000000 0.000000 -0.515519 0.006000 0.000000 -0.000000 0.006000 0.000000 -0.000000 0.006000 0.000000 -0.402110 0.006000 0.000000 0.000000 0.006000 0.000000 0.000000 0.006000 0.000000 -0.825228 0.006000 0.000000 -0.297024 0.006000 0.000000 -0.907019 0.009000 0.000000 -0.012000 -0.009000 0.000000 -0.072004 -0.006000 0.000000 -0.006000 -0.006000 0.000000 -0.059998 -0.006000 0.000000 -0.047988 -0.006000 0.000000 -0.006000 -0.006000 0.000000 -0.311979 -0.006000 0.000000 -0.006000 -0.006000 0.000000 -0.420018 -0.006000 0.000000 -0.006000 0.000000 0.000000 -0.006000 0.000000 0.000000 -0.588579 0.005999 0.000000 -0.000000 0.006000 0.000000 -0.000000 0.006000 0.000000 -0.390025 0.006000 0.000000 0.000000 0.006000 0.000000 0.000000 0.006000 0.000000 -0.768195 0.005999 0.000000 -0.303916 0.006000 0.000000 -1.020275 0.008989 0.000000 -0.012000 -0.009000 0.000000 -0.090002 -0.006000 0.000000 -0.006000 -0.006000 0.000000 -0.078004 -0.006000 0.000000 -0.048087 -0.006000 0.000000 -0.006000 -0.006000 0.000000 -0.329861 -0.006000 0.000000 -0.006000 -0.006000 0.000000 -0.357103 -0.006008 0.000000 -0.006000 0.000000 0.000000 -0.006000 0.000000 0.000000 -0.588692 0.006045 0.000000 -0.000000 0.006000 0.000000 -0.000000 0.006000 0.000000 -0.330202 0.006000 0.000000 -0.000000 0.006000 0.000000 0.000000 0.006000 0.000000 -0.804638 0.006039 0.000000 -0.379969 0.006003 0.000000 -0.923144 0.009283 0.000000 -0.012000 -0.009000 0.000000 -0.071998 -0.005939 0.000000 -0.006000 -0.006000 0.000000 -0.036008 -0.006004 0.000000 -0.046486 -0.006005 0.000000 -0.006000 -0.006000 0.000000 -0.252760 -0.005998 0.000000 -0.000000 -0.006000 0.000000 -0.440859 -0.005776 0.000000 -0.006000 0.000000 0.000000 -0.006000 0.000000 0.000000 -0.558744 0.005072 0.000000 -0.000000 0.006000 0.000000 -0.000000 0.006000 0.000000 -0.317985 0.005976 0.000000 0.000000 0.006000 0.000000 -0.000000 0.006000 0.000000 -0.782760 0.005088 0.000000 -0.316406 0.005796 0.000000 -0.951706 0.004232 0.000000 -0.012000 -0.009000 0.000000 -0.090010 -0.011067 0.000000 0.000015 -0.012000 0.000000 -0.062219 -0.005583 0.000000 -0.272074 -0.005931 0.000000 -0.005868 0.000000 0.000000 -0.354532 -0.000250 0.000000 -0.000000 -0.006002 0.000000 -0.432246 -0.007744 0.000000 -0.006000 0.000000 0.000000 -0.006000 0.000000 0.000000 -0.597479 0.015130 0.000000 -0.000000 0.006000 0.000000 -0.000000 0.006000 0.000000 -0.258592 0.007310 0.000000 0.006000 0.005997 0.000000 -0.000000 0.006000 0.000000 -0.862468 0.026922 0.000000 -0.364781 0.013911 0.000000 -0.902595 0.055793 0.000000 -0.012001 -0.009001 0.000000 -0.069001 -0.013069 0.000000 0.000001 -0.011999 0.000000 -0.562078 -0.014513 0.000000 -0.153830 -0.010397 0.000000 0.000004 -0.006000 0.000000 -0.347693 -0.018408 0.000000 0.006186 -0.011996 0.000000 -0.418960 -0.019523 0.000000 -0.006000 0.000000 0.000000 -0.000000 0.000000 0.000000 -0.625279 -0.041320 0.000000 0.000004 -0.000000 0.000000 0.006022 0.000001 0.000000 -0.299728 -0.019798 0.000000 0.006021 -0.006012 0.000000 0.000901 0.012001 0.000000 -2.037957 -0.253823 0.000000 -0.416945 -0.138841 0.000000 -0.828430 -0.189684 0.000000 -0.017577 0.004355 0.000000 -0.030763 0.065965 0.000000 0.006052 0.041999 0.000000 -0.059364 0.145877 0.000000 0.322149 0.104101 0.000000 0.000348 0.095999 0.000000 -0.272635 0.227515 0.000000 -0.003984 0.197996 0.000000 -0.499775 0.240149 0.000000 -0.002799 0.089977 0.000000 0.000422 0.198001 0.000000 0.028902 0.196380 0.000000 0.011099 0.185881 0.000000 0.005855 0.204000 0.000000 -0.267356 0.159722 0.000000 0.010377 0.173974 0.000000 0.012084 0.168018 0.000000 2.578480 -0.215591 0.000000 -0.416440 1.230595 0.000000 3.761110 1.422283 0.000000 -0.325377 -1.334505 0.000000 0.374904 -1.150029 0.000000 0.000094 -1.191043 0.000000 -0.001498 -1.084902 0.000000 0.256100 -1.080379 0.000000 0.117095 -1.196007 0.000000 -2.419437 -1.080757 0.000000 0.320759 -1.275052 0.000000 -1.222349 -1.534103 0.000000 0.237091 -1.327019 0.000000 0.293491 -1.218254 0.000000 -0.494772 -1.441701 0.000000 0.245763 -1.367679 0.000000 0.104299 -1.218801 0.000000 -0.391351 -1.518845 0.000000 -0.058039 -1.348305 0.000000 1.753595 -1.348075 0.000000 0.204692 -1.507538 0.000000 2.091173 1.907635 0.000000 2.513862 1.351019 0.000000 -0.009139 -9.060127 0.000000 0.434359 -9.056080 0.000000 0.426987 -5.816339 0.000000 0.194344 -7.820682 0.000000 -0.066186 -4.758155 0.000000 -0.130300 -4.447401 0.000000 2.230489 -4.518290 0.000000 -0.813283 -1.508822 0.000000 3.574797 -5.296898 0.000000 -3.214124 -2.101112 0.000000 1.919843 0.313853 0.000000 0.800672 0.028648 0.000000 0.092702 -0.743316 0.000000 1.775203 1.440112 0.000000 0.298983 0.224679 0.000000 -1.702313 3.632904 0.000000 1.869982 3.103369 0.000000 0.131806 1.461264 0.000000 -2.112740 -3.125196 0.000000 7.045186 -2.237465 0.000000 -0.011730 -9.276228 0.000000 0.100051 -9.331310 0.000000 -0.005601 -7.763164 0.000000 0.325257 -9.775121 0.000000 0.154112 -4.601751 0.000000 -0.962035 -8.358175 0.000000 2.314646 -2.308415 0.000000 -3.457700 -7.300337 0.000000 3.298898 -3.280739 0.000000 -1.783904 -4.106983 0.000000 0.863988 -6.604888 0.000000 4.338734 -2.566520 0.000000 -1.273268 2.882026 0.000000 2.144498 -7.364926 0.000000 -0.308455 -2.436367 0.000000 -0.030734 2.651657 0.000000 2.481852 -3.251873 0.000000 -0.765436 2.995887 0.000000 2.470820 -0.068933 0.000000 1.718198 -13.361280 0.000000 -0.012167 -9.216176 0.000000 0.031284 -9.132896 0.000000 -0.203775 -7.571211 0.000000 0.354106 -9.739575 0.000000 -0.175217 -3.965272 0.000000 -0.920228 -8.318175 0.000000 2.391956 -2.164049 0.000000 -3.775363 -7.497516 0.000000 3.116808 -4.020735 0.000000 -4.158051 -3.711375 0.000000 1.412753 -5.898896 0.000000 4.508453 -1.813121 0.000000 1.094502 -1.193657 0.000000 2.278642 -6.914023 0.000000 0.951052 -3.052173 0.000000 -3.598443 -8.320125 0.000000 -2.266234 -3.467663 0.000000 -0.363602 -9.276866 0.000000 12.284008 1.130616 0.000000 4.514418 -14.197764 0.000000 -0.008241 -9.297390 0.000000 0.011792 -9.417174 0.000000 0.019411 -7.597723 0.000000 0.342529 -9.294717 0.000000 -0.165620 -4.042016 0.000000 -1.467680 -7.258090 0.000000 2.479036 -3.529391 0.000000 -3.239404 -6.568828 0.000000 3.489169 -4.220797 0.000000 -4.308520 -2.804053 0.000000 1.529667 -6.974623 0.000000 4.374732 -1.964902 0.000000 -3.301010 -2.469116 0.000000 1.994475 -7.880515 0.000000 1.847918 -4.666440 0.000000 -0.362503 -13.205184 0.000000 -3.216278 -5.676191 0.000000 -2.776800 -8.028064 0.000000 10.072265 -2.246017 0.000000 1.085782 -10.243746 0.000000 -0.004581 -9.261270 0.000000 0.028681 -9.291631 0.000000 0.151028 -7.717285 0.000000 0.461804 -9.380173 0.000000 0.040486 -4.228287 0.000000 -0.750212 -8.335251 0.000000 2.710748 -2.346952 0.000000 -3.039878 -6.944364 0.000000 3.215601 -3.665377 0.000000 -4.398149 -3.576557 0.000000 0.074623 -6.445684 0.000000 4.787840 -3.955029 0.000000 -2.541338 -3.368027 0.000000 2.153792 -8.546177 0.000000 2.698003 -4.215087 0.000000 -0.091039 -13.944022 0.000000 -1.572779 -7.096269 0.000000 8.184369 -9.381877 0.000000 5.693964 -4.352451 0.000000 10.419704 -1.745300 0.000000 -