<VTKFile type="UnstructuredGrid" version="0.1" byte_order="LittleEndian">
  <UnstructuredGrid>
    <Piece NumberOfPoints="2000" NumberOfCells="0">
      <Points>
        <DataArray name="Position" type="Float32" NumberOfComponents="3" format="ascii">
-0.003031 -0.001822 0.000000 -0.003031 0.998786 0.000000 -0.003031 1.998786 0.000000 -0.003031 2.998786 0.000000 -0.004078 3.998787 0.000000 -0.004212 4.998787 0.000000 -0.004198 5.998787 0.000000 -0.004233 6.998787 0.000000 -0.003022 7.998788 0.000000 -0.004232 9.000000 0.000000 -0.003018 10.000001 0.000000 -0.003017 11.001212 0.000000 -0.003019 12.001213 0.000000 -0.003019 13.001213 0.000000 -0.003019 14.001213 0.000000 -0.003013 15.001213 0.000000 -0.003013 16.001214 0.000000 -0.003013 17.001214 0.000000 -0.003013 18.001214 0.000000 -0.003013 19.001822 0.000000 0.998783 -0.001822 0.000000 0.998783 0.998786 0.000000 0.998101 1.998786 0.000000 0.997837 2.998786 0.000000 0.997492 3.998787 0.000000 0.996401 4.998787 0.000000 0.996471 5.998787 0.000000 0.997577 6.998787 0.000000 0.997802 7.998788 0.000000 0.997578 9.000000 0.000000 0.997768 10.000001 0.000000 0.998024 11.001212 0.000000 0.998777 12.001213 0.000000 0.998777 13.001213 0.000000 0.998777 14.001213 0.000000 0.998774 15.001213 0.000000 0.998774 16.001214 0.000000 0.998774 17.001214 0.000000 0.997829 18.001214 0.000000 0.997621 19.001822 0.000000 1.998786 -0.001822 0.000000 1.998786 0.998786 0.000000 1.998782 1.998786 0.000000 1.997841 2.998786 0.000000 1.997823 3.998787 0.000000 1.997569 4.998787 0.000000 1.997562 5.998787 0.000000 1.997581 6.998787 0.000000 1.997803 7.998788 0.000000 1.997581 9.000000 0.000000 1.997793 10.000001 0.000000 1.998054 11.001212 0.000000 1.998786 12.001213 0.000000 1.998786 13.001213 0.000000 1.998786 14.001213 0.000000 1.998786 15.001213 0.000000 1.998786 16.001214 0.000000 1.998786 17.001214 0.000000 1.997839 18.001214 0.000000 1.997635 19.001822 0.000000 2.998786 -0.001822 0.000000 2.998786 0.998786 0.000000 2.998785 1.998786 0.000000 2.997847 2.998786 0.000000 2.997858 3.998786 0.000000 2.997577 4.998787 0.000000 2.997579 5.998787 0.000000 2.997585 6.998787 0.000000 2.997805 7.998788 0.000000 2.997585 9.000000 0.000000 2.997797 10.000001 0.000000 2.998076 11.001212 0.000000 2.998786 12.001213 0.000000 2.998786 13.001213 0.000000 2.998786 14.001213 0.000000 2.998786 15.001213 0.000000 2.998786 16.001214 0.000000 2.998786 17.001214 0.000000 2.997856 18.001214 0.000000 2.997646 19.001822 0.000000 3.998786 -0.001822 0.000000 3.998786 0.998379 0.000000 3.998785 1.998483 0.000000 3.997915 2.998630 0.000000 3.997875 3.998719 0.000000 3.997578 4.998859 0.000000 3.997583 5.998946 0.000000 3.997818 6.999093 0.000000 3.997805 7.999194 0.000000 3.998069 9.000000 0.000000 3.997816 10.000003 0.000000 3.998099 11.000898 0.000000 3.998786 12.001213 0.000000 3.998786 13.001213 0.000000 3.998786 14.001213 0.000000 3.998786 15.001214 0.000000 3.998786 16.001214 0.000000 3.998786 17.001215 0.000000 3.997864 18.001529 0.000000 3.997657 19.001822 0.000000 4.998787 -0.006583 0.000000 4.998787 0.996347 0.000000 4.998785 1.996367 0.000000 4.998780 2.996369 0.000000 4.998718 3.997560 0.000000 4.997580 4.997575 0.000000 4.997615 5.997584 0.000000 4.997846 6.997593 0.000000 4.997842 7.998316 0.000000 4.998089 8.998785 0.000000 4.997818 9.999249 0.000000 4.998099 10.999995 0.000000 4.998787 12.001213 0.000000 4.998787 13.001213 0.000000 4.998787 14.001213 0.000000 4.998787 15.001213 0.000000 4.998787 16.001214 0.000000 4.998787 17.001214 0.000000 4.997884 18.001214 0.000000 4.997682 19.001822 0.000000 5.998788 -0.003024 0.000000 5.998788 0.997612 0.000000 5.998788 1.998378 0.000000 5.998788 2.998711 0.000000 5.998789 3.998783 0.000000 5.997585 4.998866 0.000000 5.997620 5.999196 0.000000 5.998778 6.999598 0.000000 5.998293 7.999967 0.000000 5.998291 9.000003 0.000000 5.997834 10.000409 0.000000 5.998159 11.000965 0.000000 5.998787 12.001213 0.000000 5.998787 13.001213 0.000000 5.998787 14.001213 0.000000 5.998787 15.001214 0.000000 5.998787 16.001214 0.000000 5.998787 17.001215 0.000000 5.997885 18.001462 0.000000 5.998210 19.001822 0.000000 6.998788 -0.001822 0.000000 6.998788 0.998354 0.000000 6.998788 1.998444 0.000000 6.998788 2.998786 0.000000 6.998789 3.998787 0.000000 6.998271 4.998787 0.000000 6.998119 5.998787 0.000000 6.998783 6.999125 0.000000 6.998298 7.999219 0.000000 6.998777 8.999999 0.000000 6.998276 10.000001 0.000000 6.998403 11.001212 0.000000 6.998787 12.001213 0.000000 6.998787 13.001213 0.000000 6.998787 14.001213 0.000000 6.998787 15.001213 0.000000 6.998787 16.001214 0.000000 6.998787 17.001214 0.000000 6.997885 18.001214 0.000000 6.998212 19.001822 0.000000 7.998788 -0.001822 0.000000 7.998788 0.998786 0.000000 7.998788 1.998786 0.000000 7.998788 2.998786 0.000000 7.998789 3.998786 0.000000 7.998777 4.998787 0.000000 7.998777 5.998787 0.000000 7.998784 6.998787 0.000000 7.998301 7.998788 0.000000 7.998783 8.999999 0.000000 7.998284 10.000001 0.000000 7.998414 11.001212 0.000000 7.998787 12.001213 0.000000 7.998787 13.001213 0.000000 7.998787 14.001213 0.000000 7.998787 15.001213 0.000000 7.998787 16.001214 0.000000 7.998787 17.001214 0.000000 7.997889 18.001214 0.000000 7.998215 19.001822 0.000000 8.998788 -0.001822 0.000000 8.998788 0.998786 0.000000 8.998788 1.998786 0.000000 8.998788 2.998786 0.000000 8.998790 3.998787 0.000000 8.998784 4.998787 0.000000 8.998784 5.998787 0.000000 8.998784 6.998787 0.000000 8.998305 7.998788 0.000000 8.998784 9.000000 0.000000 8.998289 10.000001 0.000000 8.998418 11.001212 0.000000 8.998788 12.001213 0.000000 8.998788 13.001213 0.000000 8.998788 14.001213 0.000000 8.998788 15.001213 0.000000 8.998788 16.001214 0.000000 8.998788 17.001214 0.000000 8.997919 18.001214 0.000000 8.998217 19.001822 0.000000 9.998789 -0.001822 0.000000 9.998789 0.998786 0.000000 9.998789 1.998786 0.000000 9.998789 2.998786 0.000000 9.998790 3.998787 0.000000 9.998785 4.998787 0.000000 9.998786 5.998787 0.000000 9.998787 6.998787 0.000000 9.998775 7.998788 0.000000 9.998784 9.000000 0.000000 9.998291 10.000001 0.000000 9.998420 11.001212 0.000000 9.998788 12.001213 0.000000 9.998788 13.001213 0.000000 9.998788 14.001213 0.000000 9.998788 15.001213 0.000000 9.998788 16.001214 0.000000 9.998788 17.001214 0.000000 9.998312 18.001214 0.000000 9.998221 19.001822 0.000000 10.998789 -0.001822 0.000000 10.998789 0.998786 0.000000 10.998789 1.998786 0.000000 10.998789 2.998786 0.000000 10.998790 3.998787 0.000000 10.998792 4.998787 0.000000 10.998792 5.998787 0.000000 10.998790 6.998787 0.000000 10.998790 7.998788 0.000000 10.998790 9.000000 0.000000 10.998291 10.000001 0.000000 10.998429 11.001212 0.000000 10.998788 12.001213 0.000000 10.998788 13.001213 0.000000 10.998788 14.001213 0.000000 10.998788 15.001213 0.000000 10.998788 16.001214 0.000000 10.998788 17.001214 0.000000 10.998313 18.001214 0.000000 10.998223 19.001822 0.000000 11.998789 -0.001822 0.000000 11.998789 0.998786 0.000000 11.998789 1.998786 0.000000 11.998789 2.998786 0.000000 11.998790 3.998787 0.000000 11.998792 4.998787 0.000000 11.998792 5.998787 0.000000 11.998790 6.998787 0.000000 11.998790 7.998788 0.000000 11.998790 9.000000 0.000000 11.998293 10.000001 0.000000 11.998431 11.001212 0.000000 11.998789 12.001213 0.000000 11.998789 13.001213 0.000000 11.998789 14.001213 0.000000 11.998789 15.001213 0.000000 11.998789 16.001214 0.000000 11.998789 17.001214 0.000000 11.998320 18.001214 0.000000 11.998233 19.001822 0.000000 12.998790 -0.001822 0.000000 12.998790 0.998786 0.000000 12.998790 1.998786 0.000000 12.998790 2.998786 0.000000 12.998791 3.998787 0.000000 12.998792 4.998787 0.000000 12.998792 5.998787 0.000000 12.998791 6.998787 0.000000 12.998791 7.998788 0.000000 12.998791 9.000000 0.000000 12.998773 10.000001 0.000000 12.998771 11.001212 0.000000 12.998789 12.001213 0.000000 12.998789 13.001213 0.000000 12.998789 14.001213 0.000000 12.998789 15.001213 0.000000 12.998789 16.001214 0.000000 12.998789 17.001214 0.000000 12.998322 18.001214 0.000000 12.998235 19.001822 0.000000 13.998790 -0.001822 0.000000 13.998790 0.998786 0.000000 13.998790 1.998786 0.000000 13.998790 2.998786 0.000000 13.998791 3.998787 0.000000 13.998792 4.998787 0.000000 13.998792 5.998787 0.000000 13.998791 6.998787 0.000000 13.998791 7.998788 0.000000 13.998791 9.000000 0.000000 13.998783 10.000001 0.000000 13.998781 11.001212 0.000000 13.998789 12.001213 0.000000 13.998789 13.001213 0.000000 13.998789 14.001213 0.000000 13.998789 15.001213 0.000000 13.998789 16.001214 0.000000 13.998789 17.001214 0.000000 13.998324 18.001214 0.000000 13.998772 19.001822 0.000000 14.998790 -0.001822 0.000000 14.998790 0.998786 0.000000 14.998790 1.998786 0.000000 14.998790 2.998786 0.000000 14.998791 3.998787 0.000000 14.998793 4.998787 0.000000 14.998793 5.998787 0.000000 14.998791 6.998787 0.000000 14.998791 7.998788 0.000000 14.998791 9.000000 0.000000 14.998783 10.000001 0.000000 14.998783 11.001212 0.000000 14.998790 12.001213 0.000000 14.998790 13.001213 0.000000 14.998790 14.001213 0.000000 14.998790 15.001213 0.000000 14.998790 16.001214 0.000000 14.998790 17.001214 0.000000 14.998326 18.001214 0.000000 14.998784 19.001822 0.000000 15.998790 -0.001822 0.000000 15.998790 0.998786 0.000000 15.998790 1.998786 0.000000 15.998790 2.998786 0.000000 15.998792 3.998787 0.000000 15.998793 4.998787 0.000000 15.998793 5.998787 0.000000 15.998792 6.998787 0.000000 15.998792 7.998788 0.000000 15.998792 9.000000 0.000000 15.998786 10.000001 0.000000 15.998786 11.001212 0.000000 15.998791 12.001213 0.000000 15.998791 13.001213 0.000000 15.998791 14.001213 0.000000 15.998790 15.001213 0.000000 15.998790 16.001214 0.000000 15.998790 17.001214 0.000000 15.998351 18.001214 0.000000 15.998784 19.001822 0.000000 16.998791 -0.001822 0.000000 16.998791 0.998786 0.000000 16.998791 1.998786 0.000000 16.998791 2.998786 0.000000 16.998792 3.998787 0.000000 16.998793 4.998787 0.000000 16.998793 5.998787 0.000000 16.998792 6.998787 0.000000 16.998792 7.998788
[...]
      <PointData Vectors="vector">
        <DataArray type="Float32" Name="Velocity" NumberOfComponents="3" format="ascii">
-0.015000 -0.009000 0.000000 -0.015000 -0.006000 0.000000 -0.015000 -0.006000 0.000000 -0.015000 -0.006000 0.000000 -0.021000 -0.006000 0.000000 -0.021000 -0.006000 0.000000 -0.021000 -0.006000 0.000000 -0.021000 -0.006000 0.000000 -0.015000 -0.006000 0.000000 -0.021000 0.000000 0.000000 -0.015000 0.000000 0.000000 -0.015000 0.006000 0.000000 -0.015000 0.006000 0.000000 -0.015000 0.006000 0.000000 -0.015000 0.006000 0.000000 -0.015000 0.006000 0.000000 -0.015000 0.006000 0.000000 -0.015000 0.006000 0.000000 -0.015000 0.006000 0.000000 -0.015000 0.009000 0.000000 -0.006000 -0.009000 0.000000 -0.006000 -0.006000 0.000000 -0.018000 -0.006000 0.000000 -0.018000 -0.006000 0.000000 -0.012000 -0.006000 0.000000 -0.018000 -0.006000 0.000000 -0.018000 -0.006000 0.000000 -0.012000 -0.006000 0.000000 -0.018000 -0.006000 0.000000 -0.012000 0.000000 0.000000 -0.018000 0.000000 0.000000 -0.018000 0.006000 0.000000 -0.006000 0.006000 0.000000 -0.006000 0.006000 0.000000 -0.006000 0.006000 0.000000 -0.006000 0.006000 0.000000 -0.006000 0.006000 0.000000 -0.006000 0.006000 0.000000 -0.018000 0.006000 0.000000 -0.018000 0.009000 0.000000 -0.006000 -0.009000 0.000000 -0.006000 -0.006000 0.000000 -0.006000 -0.006000 0.000000 -0.018000 -0.006000 0.000000 -0.018000 -0.006000 0.000000 -0.012000 -0.006000 0.000000 -0.012000 -0.006000 0.000000 -0.012000 -0.006000 0.000000 -0.018000 -0.006000 0.000000 -0.012000 0.000000 0.000000 -0.018000 0.000000 0.000000 -0.018000 0.006000 0.000000 -0.006000 0.006000 0.000000 -0.006000 0.006000 0.000000 -0.006000 0.006000 0.000000 -0.006000 0.006000 0.000000 -0.006000 0.006000 0.000000 -0.006000 0.006000 0.000000 -0.018000 0.006000 0.000000 -0.018000 0.009000 0.000000 -0.006000 -0.009000 0.000000 -0.006000 -0.006000 0.000000 -0.006000 -0.006000 0.000000 -0.018000 -0.006000 0.000000 -0.018000 -0.006000 0.000000 -0.012000 -0.006000 0.000000 -0.012000 -0.006000 0.000000 -0.012000 -0.006000 0.000000 -0.018000 -0.006000 0.000000 -0.012000 -0.000000 0.000000 -0.018000 -0.000000 0.000000 -0.018000 0.006000 0.000000 -0.006000 0.006000 0.000000 -0.006000 0.006000 0.000000 -0.006000 0.006000 0.000000 -0.006000 0.006000 0.000000 -0.006000 0.006000 0.000000 -0.006000 0.006000 0.000000 -0.018000 0.006000 0.000000 -0.018000 0.009000 0.000000 -0.006000 -0.009000 0.000000 -0.006000 -0.012000 0.000000 -0.005998 -0.011979 0.000000 -0.018001 -0.011929 0.000000 -0.017988 -0.011972 0.000000 -0.012013 0.000000 0.000000 -0.012007 0.000001 0.000000 -0.017993 0.000009 0.000000 -0.018000 0.000000 0.000000 -0.018000 0.000010 0.000000 -0.018000 0.000034 0.000000 -0.018000 0.000041 0.000000 -0.006000 0.006000 0.000000 -0.006000 0.006000 0.000000 -0.006000 0.006000 0.000000 -0.006000 0.006000 0.000000 -0.006000 0.006000 0.000000 -0.005998 0.006000 0.000000 -0.018002 0.012000 0.000000 -0.018000 0.009000 0.000000 -0.006000 -0.033000 0.000000 -0.006000 -0.018000 0.000000 -0.006000 -0.018020 0.000000 -0.006000 -0.018071 0.000000 -0.012000 -0.012035 0.000000 -0.012001 -0.012001 0.000000 -0.012000 -0.012001 0.000000 -0.018000 -0.012042 0.000000 -0.018000 -0.012044 0.000000 -0.018000 -0.006031 0.000000 -0.018000 -0.000078 0.000000 -0.018000 -0.000092 0.000000 -0.006000 0.006000 0.000000 -0.006000 0.006000 0.000000 -0.006000 0.006000 0.000000 -0.006000 0.006000 0.000000 -0.006000 0.006000 0.000000 -0.006000 0.006000 0.000000 -0.018000 0.006000 0.000000 -0.018000 0.009000 0.000000 -0.006000 -0.015000 0.000000 -0.006000 -0.012000 0.000000 -0.006000 -0.011981 0.000000 -0.006000 -0.011929 0.000000 -0.005988 -0.005958 0.000000 -0.012012 0.000000 0.000000 -0.012000 0.000001 0.000000 -0.005999 -0.005949 0.000000 -0.012001 0.000091 0.000000 -0.017999 0.000021 0.000000 -0.018001 0.006043 0.000000 -0.018001 0.000051 0.000000 -0.005999 0.006000 0.000000 -0.006000 0.006000 0.000000 -0.006000 0.006000 0.000000 -0.006000 0.006000 0.000000 -0.006000 0.006000 0.000000 -0.005998 0.006000 0.000000 -0.018002 0.012000 0.000000 -0.012000 0.009000 0.000000 -0.006000 -0.009000 0.000000 -0.006000 -0.012000 0.000000 -0.006000 -0.011999 0.000000 -0.006000 -0.006000 0.000000 -0.006000 -0.006000 0.000000 -0.018000 -0.006000 0.000000 -0.018000 -0.006000 0.000000 -0.006000 -0.000017 0.000000 -0.012000 -0.000048 0.000000 -0.006000 -0.000000 0.000000 -0.012000 -0.000000 0.000000 -0.012000 0.006000 0.000000 -0.006000 0.006000 0.000000 -0.006000 0.006000 0.000000 -0.006000 0.006000 0.000000 -0.006000 0.006000 0.000000 -0.006000 0.006000 0.000000 -0.006000 0.006000 0.000000 -0.018000 0.006000 0.000000 -0.012000 0.009000 0.000000 -0.006000 -0.009000 0.000000 -0.006000 -0.006000 0.000000 -0.006000 -0.006000 0.000000 -0.006000 -0.006000 0.000000 -0.006000 -0.006000 0.000000 -0.006000 -0.006000 0.000000 -0.006000 -0.006000 0.000000 -0.006000 -0.006000 0.000000 -0.012000 -0.006000 0.000000 -0.006000 0.000000 0.000000 -0.012000 0.000000 0.000000 -0.012000 0.006000 0.000000 -0.006000 0.006000 0.000000 -0.006000 0.006000 0.000000 -0.006000 0.006000 0.000000 -0.006000 0.006000 0.000000 -0.006000 0.006000 0.000000 -0.006000 0.006000 0.000000 -0.018000 0.006000 0.000000 -0.012000 0.009000 0.000000 -0.006000 -0.009000 0.000000 -0.006000 -0.006000 0.000000 -0.006000 -0.006000 0.000000 -0.006000 -0.006000 0.000000 -0.006000 -0.006000 0.000000 -0.006000 -0.006000 0.000000 -0.006000 -0.006000 0.000000 -0.006000 -0.006000 0.000000 -0.012000 -0.006000 0.000000 -0.006000 0.000000 0.000000 -0.012000 0.000000 0.000000 -0.012000 0.006000 0.000000 -0.006000 0.006000 0.000000 -0.006000 0.006000 0.000000 -0.006000 0.006000 0.000000 -0.006000 0.006000 0.000000 -0.006000 0.006000 0.000000 -0.006000 0.006000 0.000000 -0.018000 0.006000 0.000000 -0.012000 0.009000 0.000000 -0.006000 -0.009000 0.000000 -0.006000 -0.006000 0.000000 -0.006000 -0.006000 0.000000 -0.006000 -0.006000 0.000000 -0.006000 -0.006000 0.000000 -0.006000 -0.006000 0.000000 -0.006000 -0.006000 0.000000 -0.006000 -0.006000 0.000000 -0.006000 -0.006000 0.000000 -0.006000 -0.000000 0.000000 -0.012000 0.000000 0.000000 -0.012000 0.006000 0.000000 -0.006000 0.006000 0.000000 -0.006000 0.006000 0.000000 -0.006000 0.006000 0.000000 -0.006000 0.006000 0.000000 -0.006000 0.006000 0.000000 -0.006000 0.006000 0.000000 -0.012000 0.006000 0.000000 -0.012000 0.009000 0.000000 -0.006000 -0.009000 0.000000 -0.006000 -0.006000 0.000000 -0.006000 -0.006000 0.000000 -0.006000 -0.006000 0.000000 -0.006000 -0.006000 0.000000 -0.006000 -0.006000 0.000000 -0.006000 -0.006000 0.000000 -0.006000 -0.006000 0.000000 -0.006000 -0.006000 0.000000 -0.006000 0.000000 0.000000 -0.012000 0.000000 0.000000 -0.012000 0.006000 0.000000 -0.006000 0.006000 0.000000 -0.006000 0.006000 0.000000 -0.006000 0.006000 0.000000 -0.006000 0.006000 0.000000 -0.006000 0.006000 0.000000 -0.006000 0.006000 0.000000 -0.012000 0.006000 0.000000 -0.012000 0.009000 0.000000 -0.006000 -0.009000 0.000000 -0.006000 -0.006000 0.000000 -0.006000 -0.006000 0.000000 -0.006000 -0.006000 0.000000 -0.006000 -0.006000 0.000000 -0.006000 -0.006000 0.000000 -0.006000 -0.006000 0.000000 -0.006000 -0.006000 0.000000 -0.006000 -0.006000 0.000000 -0.006000 0.000000 0.000000 -0.012000 0.000000 0.000000 -0.012000 0.006000 0.000000 -0.006000 0.006000 0.000000 -0.006000 0.006000 0.000000 -0.006000 0.006000 0.000000 -0.006000 0.006000 0.000000 -0.006000 0.006000 0.000000 -0.006000 0.006000 0.000000 -0.012000 0.006000 0.000000 -0.012000 0.009000 0.000000 -0.006000 -0.009000 0.000000 -0.006000 -0.006000 0.000000 -0.006000 -0.006000 0.000000 -0.006000 -0.006000 0.000000 -0.006000 -0.006000 0.000000 -0.006000 -0.006000 0.000000 -0.006000 -0.006000 0.000000 -0.006000 -0.006000 0.000000 -0.006000 -0.006000 0.000000 -0.006000 0.000000 0.000000 -0.006000 0.000000 0.000000 -0.006000 0.006000 0.000000 -0.006000 0.006000 0.000000 -0.006000 0.006000 0.000000 -0.006000 0.006000 0.000000 -0.006000 0.006000 0.000000 -0.006000 0.006000 0.000000 -0.006000 0.006000 0.000000 -0.012000 0.006000 0.000000 -0.012000 0.009000 0.000000 -0.006000 -0.009000 0.000000 -0.006000 -0.006000 0.000000 -0.006000 -0.006000 0.000000 -0.006000 -0.006000 0.000000 -0.006000 -0.006000 0.000000 -0.006000 -0.006000 0.000000 -0.006000 -0.006000 0.000000 -0.006000 -0.006000 0.000000 -0.006000 -0.006000 0.000000 -0.006000 0.000000 0.000000 -0.006000 0.000000 0.000000 -0.006000 0.006000 0.000000 -0.006000 0.006000 0.000000 -0.006000 0.006000 0.000000 -0.006000 0.006000 0.000000 -0.006000 0.006000 0.000000 -0.006000 0.006000 0.000000 -0.006000 0.006000 0.000000 -0.012000 0.006000 0.000000 -0.006000 0.009000 0.000000 -0.006000 -0.009000 0.000000 -0.006000 -0.006000 0.000000 -0.006000 -0.006000 0.000000 -0.006000 -0.006000 0.000000 -0.006000 -0.006000 0.000000 -0.006000 -0.006000 0.000000 -0.006000 -0.006000 0.000000 -0.006000 -0.006000 0.000000 -0.006000 -0.006000 0.000000 -0.006000 0.000000 0.000000 -0.006000 0.000000 0.000000 -0.006000 0.006000 0.000000 -0.006000 0.006000 0.000000 -0.006000 0.006000 0.000000 -0.006000 0.006000 0.000000 -0.006000 0.006000 0.000000 -0.006000 0.006000 0.000000 -0.006000 0.006000 0.000000 -0.012000 0.006000 0.000000 -0.006000 0.009000 0.000000 -0.006000 -0.009000 0.000000 -0.006000 -0.006000 0.000000 -0.006000 -0.006000 0.000000 -0.006000 -0.006000 0.000000 -0.006000 -0.006000 0.000000 -0.006000 -0.006000 0.000000 -0.006000 -0.006000 0.000000 -0.006000 -0.006000 0.000000 -0.006000 -0.006000 0.000000 -0.006000 0.000000 0.000000 -0.006000 0.000000 0.000000 -0.006000 0.006000 0.000000 -0.006000 0.006000 0.000000 -0.006000 0.006000 0.000000 -0.006000 0.006000 0.000000 -0.006000 0.006000 0.000000 -0.006000 0.006000 0.000000 -0.006000 0.006000 0.000000 -0.012000 0.006000 0.000000 -0.006000 0.009000 0.000000 -0.006000 -0.009000 0.000000 -0.006000 -0.006000 0.000000 -0.006000 -0.006000 0.000000 -0.006000 -0.006000 0.000000 -0.006000 -0.006000 0.000000 -0.006000 -0.006000 0.000000 -0.006000 -0.006000 0.000000 -0.006000 -0.006000 0.000000 -0.006000 -0.006000 0.000000 -0.006000 0.000000 0.000000 -0.006000 0.000000 0.000000 -0.006000 0.006000 0.000000 -0.006000 0.006000 0.000000 -0.006000 0.006000 0.000000 -0.006000 0.006000 0.000000 -0.006000 0.006000 0.000000 -0.006000 0.006000 0.000000 -0.006000 0.006000 0.000000 -0.012000 0.006000 0.000000 -0.006000 0.009000 0.000000 -0.006000 -0.009000 0.000000 -0.006000 -0.006000 0.000000 -0.006000 -0.006000 0.000000 -0.006000 -0.006000 0.000000 -0.006000 -0.006000 0.000000 -0.006000 -0.006000 0.000000 -0.006000 -0.006000 0.000000 -0.006000 -0.006000 0.000000 -0.006000 -0.006000 0.000000 -0.006000 0.000000 0.000000 -0.006000 0.000000 0.000000 -0.006000 0.006000 0.000000 -0.006000 0.006000 0.000000 -0.006000 0.006000 0.000000 -0.006000 0.006000 0.000000 -0.006000 0.006000 0.000000 -0.006000 0.006000 0.000000 -0.006000 0.006000 0.000000 -0.006000 0.006000 0.000000 -0.006000 0.009000 0.000000 -0.006000 -0.009000 0.000000 -0.006000 -0.006000 0.000000 -0.006000 -0.006000 0.000000 -0.006000 -0.006000 0.000000 -0.006000 -0.006000 0.000000 -0.006000 -0.006000 0.000000 -0.006000 -0.006000 0.000000 -0.006000 -0.006000 0.000000 -0.006000 -0.006000 0.000000 -0.006000 0.000000 0.000000 -0.006000 0.000000 0.000000 -0.006000 0.006000 0.000000 -0.006000 0.006000 0.000000 -0.006000 0.006000 0.000000 -0.006000 0.006000 0.000000 -0.006000 0.006000 0.000000 -0.006000 0.006000 0.000000 -0.006000 0.006000 0.000000 -0.006000 0.006000 0.000000 -0.006000 0.009000 0.000000 -0.006000 -0.009000 0.000000 -0.006000 -0.006000 0.000000 -0.006000 -0.006000 0.000000 -0.006000 -0.006000 0.000000 -0.006000 -0.006000 0.000000 -0.006000 -0.006000 0.000000 -0.006000 -0.006000 0.000000 -0.006000 -0.006000 0.000000 -0.006000 -0.006000 0.000000 -0.006000 0.000000 0.000000 -0.006000 0.000000 0.000000 -0.006000 0.006000 0.000000 -0.006000 0.006000 0.000000 -0.006000 0.006000 0.000000 -0.006000 0.006000 0.000000 -0.006000 0.006000 0.000000 -0.006000 0.006000 0.000000 -0.006000 0.006000 0.000000 -0.006000 0.006000 0.000000 -0.006000 0.009000 0.000000 -0.006000 -0.009000 0.000000 -0.006000 -0.006000 0.000000 -0.006000 -0.006000 0.000000 -0.006000 -0.006000 0.000000 -0.006000 -0.006000 0.000000 -0.006000 -0.006000 0.000000 -0.006000 -0.006000 0.000000 -0.006000 -0.006000 0.000000 -0.006000 -0.006000 0.000000 -0.006000 0.000000 0.000000 -0.006000 0.000000 0.000000 -0.006000 0.006000 0.000000 -0.006000 0.006000 0.000000 -0.006000 0.006000 0.000000 -0.006000 0.006000 0.000000 -0.006000 0.006000 0.000000 -0.006000 0.006000 0.000000 -0.006000 0.006000 0.000000 -0.006000 0.006000 0.000000 -0.006000 0.009000 0.000000 -0.006000 -0.009000 0.000000 -0.006000 -0.006000 0.000000 -0.006000 -0.006000 0.000000 -0.006000 -0.006000 0.000000 -0.006000 -0.006000 0.000000 -0.006000 -0.006000 0.000000 -0.006000 -0.006000 0.000000 -0.006000 -0.006000 0.000000 -0.006000 -0.006000 0.000000 -0.006000 0.000000 0.000000 -0.006000 0.000000 0.000000 -0.006000 0.006000 0.000000 -0.006000 0.006000 0.000000 -0.006000 0.006000 0.000000 -0.006000 0.006000 0.000000 -0.006000 0.006000 0.000000 -0.006000 0.006000 0.000000 -0.006000 0.006000 0.000000 0.000000 0.006000 0.000000 -0.006000 0.009000 0.000000 -0.006000 -0.009000 0.000000 -0.006000 -0.006000 0.000000 -0.006000 -0.006000 0.000000 -0.006000 -0.006000 0.000000 -0.006000 -0.006000 0.000000 -0.006000 -0.006000 0.000000 -0.006000 -0.006000 0.000000 -0.006000 -0.006000 0.000000 -0.006000 -0.006000 0.000000 -0.006000 0.000000 0.000000 -0.006000 0.000000 0.000000 -0.006000 0.006000 0.000000 -0.006000 0.006000 0.000000 -0.006000 0.006000 0.000000 -0.006000 0.006000 0.000000 -0.006000 0.006000 0.000000 -0.006000 0.006000 0.000000 -0.006000 0.006000 0.000000 0.000000 0.006000 0.000000 -0.006000 0.009000 0.000000 -0.006000 -0.009000 0.000000 -0.006000 -0.006000 0.000000 -0.006000 -0.006000 0.000000 -0.006000 -0.006000 0.000000 -0.006000 -0.006000 0.000000 -0.006000 -0.006000 0.000000 -0.006000 -0.006000 0.000000 -0.006000 -0.006000 0.000000 -0.006000 -0.006000 0.000000 -0.006000 0.000000 0.000000 -0.006000 0.000000 0.000000 -0.006000 0.006000 0.000000 -0.006000 0.006000 0.000000 -0.006000 0.006000 0.000000 -0.006000 0.006000 0.000000 -0.006000 0.006000 0.000000 -0.006000 0.006000 0.000000 -0.006000 0.006000 0.000000 -0.000000 0.006000 0.000000 -0.006000 0.009000 0.000000 -0.006000 -0.009000 0.000000 -0.006000 -0.006000 0.000000 -0.006000 -0.006000 0.000000 -0.006000 -0.006000 0.000000 -0.006000 -0.006000 0.000000 -0.006000 -0.006000 0.000000 -0.006000 -0.006000 0.000000 -0.006000 -0.006000 0.000000 -0.006000 -0.006000 0.000000 -0.006000 0.000000 0.000000 -0.006000 0.000000 0.000000 -0.006000 0.006000 0.000000 -0.006000 0.006000 0.000000 -0.006000 0.006000 0.000000 -0.006000 0.006000 0.000000 -0.006000 0.006000 0.000000 -0.006000 0.006000 0.000000 -0.006000 0.006000 0.000000 0.000000 0.006000 0.000000 -0.006000 0.009000 0.000000 -0.006000 -0.009000 0.000000 -0.006000 -0.006000 0.000000 -0.006000 -0.006000 0.000000 -0.006000 -0.006000 0.000000 -0.006000 -0.006000 0.000000 -0.006000 -0.006000 0.000000 -0.006000 -0.006000 0.000000 -0.006000 -0.006000 0.000000 -0.006000 -0.006000 0.000000 -0.006000 0.000000 0.000000 -0.006000 0.000000 0.000000 -0.000000 0.006000 0.000000 -0.006000 0.006000 0.000000 -0.006000 0.006000 0.000000 -0.006000 0.006000 0.000000 -0.006000 0.006000 0.000000 -0.006000 0.006000 0.000000 -0.006000 0.006000 0.000000 0.000000 0.006000 0.000000 0.000000 0.009000 0.000000 -0.006000 -0.009000 0.000000 -0.006000 -0.006000 0.000000 -0.006000 -0.006000 0.000000 -0.006000 -0.006000 0.000000 -0.006000 -0.006000 0.000000 -0.006000 -0.006000 0.000000 -0.006000 -0.006000 0.000000 -0.006000 -0.006000 0.000000 -0.006000 -0.006000 0.000000 -0.006000 0.000000 0.000000 -0.000000 0.000000 0.000000 0.000000 0.006000 0.000000 -0.006000 0.006000 0.000000 -0.006000 0.006000 0.000000 -0.006000 0.006000 0.000000 -0.006000 0.006000 0.000000 -0.006000 0.006000 0.000000 -0.006000 0.006000 0.000000 0.006000 0.006000 0.000000 -0.000000 0.009000 0.000000 -0.006000 -0.009000 0.000000 -0.006000 -0.006000 0.000000 -0.006000 -0.006000 0.000000 -0.006000 -0.006000 0.000000 -0.000000 -0.006000 0.000000 -0.006000 -0.006000 0.000000 -0.006000 -0.006000 0.000000 -0.006000 -0.006000 0.000000 -0.006000 -0.006000 0.000000 -0.006000 -0.000000 0.000000 -0.000000 -0.000000 0.000000 -0.000000 0.006001 0.000000 -0.006000 0.006000 0.000000 -0.006000 0.006000 0.000000 -0.006000 0.006000 0.000000 -0.006000 0.006000 0.000000 -0.006000 0.006000 0.000000 -0.006000 0.006000 0.000000 0.006000 0.006000 0.000000 -0.000000 0.009000 0.000000 -0.006000 -0.009000 0.000000 -0.006000 -0.012000 0.000000 -0.006000 -0.011939 0.000000 -0.006000 -0.011969 0.000000 -0.000001 -0.005980 0.000000 0.000002 -0.005948 0.000000 -0.006001 0.000066 0.000000 -0.006001 0.000007 0.000000 0.000001 0.000022 0.000000 0.000001 0.000183 0.000000 0.000000 0.000117 0.000000 0.000002 0.000501 0.000000 -0.006000 0.006000 0.000000 -0.006000 0.006000 0.000000 -0.006000 0.006000 0.000000 -0.006000 0.006000 0.000000 -0.006000 0.006000 0.000000 -0.006002 0.006000 0.000000 0.012002 0.012295 0.000000 0.000000 0.009155 0.000000 -0.005991 -0.711013 0.000000 -0.011924 -0.717010 0.000000 -0.012234 -0.705067 0.000000 -0.005830 -0.630037 0.000000 -0.011988 -0.705027 0.000000 -0.006117 -0.759085 0.000000 -0.005713 -0.690093 0.000000 -0.013432 -0.675030 0.000000 -0.003440 -0.639742 0.000000 -0.009103 -0.680598 0.000000 -0.003234 -0.810299 0.000000 -0.005523 -0.726855 0.000000 -0.013856 -0.659791 0.000000 -0.011846 -0.787439 0.000000 -0.017513 -0.747563 0.000000 -0.017969 -9.535293 0.000000 -0.008492 -0.842593 0.000000 -0.034381 -9.261184 0.000000 -0.021085 -0.606170 0.000000 0.070581 -9.281693 0.000000 -0.005996 -0.645006 0.000000 -0.011948 -0.729025 0.000000 -0.012156 -0.671998 0.000000 -0.005921 -0.747011 0.000000 -0.005954 -0.750009 0.000000 -0.006418 -0.768031 0.000000 0.000737 -0.672033 0.000000 -0.007416 -0.701995 0.000000 -0.004046 -0.663636 0.000000 -0.002053 -0.743639 0.000000 0.002178 -0.773932 0.000000 0.000419 -0.783691 0.000000 -0.013780 -0.692802 0.000000 -0.011706 -0.684928 0.000000 -0.005916 -0.804458 0.000000 -0.011180 -9.577397 0.000000 -0.009284 -1.112665 0.000000 -0.022616 -9.212981 0.000000 -0.017407 -1.203876 0.000000 0.073521 -8.941743 0.000000 -0.006000 -0.699007 0.000000 -0.011977 -0.798003 0.000000 -0.012299 -0.720030 0.000000 -0.005547 -0.678015 0.000000 -0.000338 -0.672017 0.000000 0.000037 -0.660013 0.000000 0.000353 -0.714057 0.000000 -0.001009 -0.639042 0.000000 -0.004415 -0.675625 0.000000 -0.007854 -0.713387 0.000000 0.002007 -0.747286 0.000000 0.000303 -0.756466 0.000000 -0.013538 -0.743928 0.000000 -0.011802 -0.726847 0.000000 -0.011806 -0.758831 0.000000 -0.011407 -9.475002 0.000000 -0.009387 -1.303493 0.000000 -0.022874 -9.073255 0.000000 -0.012048 -1.243142 0.000000 0.076309 -8.907988 0.000000 -0.006000 -0.681017 0.000000 -0.005998 -0.716993 0.000000 -0.006370 -0.771008 0.000000 -0.005616 -0.768017 0.000000 -0.002260 -0.690011 0.000000 -0.003634 -0.696031 0.000000 -0.003122 -0.701999 0.000000 -0.009393 -0.741092 0.000000 0.001261 -0.747613 0.000000 -0.002078 -0.683556 0.000000 0.008350 -0.741064 0.000000 0.000187 -0.654527 0.000000 -0.013609 -0.689956 0.000000 -0.011771 -0.715788 0.000000 -0.005927 -0.818156 0.000000 -0.004994 -9.685552 0.000000 -0.009923 -1.016598 0.000000 -0.014113 -9.214954 0.000000 -0.005810 -1.065997 0.000000 0.083014 -9.079792 0.000000 -0.006000 -0.687016 0.000000 -0.009007 -0.714002 0.000000 -0.000326 -0.654003 0.000000 0.000349 -0.798028 0.000000 -0.002695 -0.758999 0.000000 -0.003335 -0.702073 0.000000 -0.002226 -0.680999 0.000000 0.001833 -0.680975 0.000000 0.001243 -0.729645 0.000000 -0.002148 -0.758509 0.000000 0.002652 -0.744230 0.000000 -0.000211 -0.744395 0.000000 -0.007168 -0.744259 0.000000 -0.005962 -0.649161 0.000000 -0.005997 -0.791372 0.000000 -0.006247 -9.525114 0.000000 -0.003918 -1.119497 0.000000 -0.021895 -9.212850 0.0000