<VTKFile type="UnstructuredGrid" version="0.1" byte_order="LittleEndian">
  <UnstructuredGrid>
    <Piece NumberOfPoints="2000" NumberOfCells="0">
      <Points>
        <DataArray name="Position" type="Float32" NumberOfComponents="3" format="ascii">
-0.005776 -0.003469 0.000000 -0.005776 0.997688 0.000000 -0.005776 1.997688 0.000000 -0.005776 2.997688 0.000000 -0.007921 3.997689 0.000000 -0.008055 4.997689 0.000000 -0.008041 5.997689 0.000000 -0.008076 6.997689 0.000000 -0.005767 7.997690 0.000000 -0.008075 9.000000 0.000000 -0.005763 10.000001 0.000000 -0.005762 11.002310 0.000000 -0.005764 12.002311 0.000000 -0.005764 13.002311 0.000000 -0.005764 14.002311 0.000000 -0.005758 15.002311 0.000000 -0.005758 16.002312 0.000000 -0.011989 17.002312 0.000000 -0.005758 18.002312 0.000000 -0.027934 19.003469 0.000000 0.997685 -0.003469 0.000000 0.997685 0.997688 0.000000 0.994807 1.997688 0.000000 0.994543 2.997688 0.000000 0.994529 3.997689 0.000000 0.993107 4.997689 0.000000 0.993177 5.997689 0.000000 0.994525 6.997689 0.000000 0.994508 7.997690 0.000000 0.994776 9.000000 0.000000 0.994474 10.000001 0.000000 0.994730 11.002310 0.000000 0.996788 12.002311 0.000000 0.997679 13.002311 0.000000 0.997679 14.002311 0.000000 0.997676 15.002311 0.000000 0.997676 16.002312 0.000000 0.988077 17.002312 0.000000 0.994535 18.002312 0.000000 0.972460 19.003469 0.000000 1.997688 -0.003469 0.000000 1.997688 0.997688 0.000000 1.997684 1.997688 0.000000 1.994547 2.997688 0.000000 1.994564 3.997689 0.000000 1.994975 4.997689 0.000000 1.994832 5.997689 0.000000 1.994555 6.997689 0.000000 1.994509 7.997690 0.000000 1.994797 9.000000 0.000000 1.994499 10.000001 0.000000 1.994760 11.002310 0.000000 1.996810 12.002311 0.000000 1.997688 13.002311 0.000000 1.997688 14.002311 0.000000 1.997688 15.002311 0.000000 1.997688 16.002312 0.000000 1.988222 17.002312 0.000000 1.994545 18.002312 0.000000 1.972706 19.003469 0.000000 2.997688 -0.003469 0.000000 2.997688 0.997115 0.000000 2.997689 1.997566 0.000000 2.994551 2.997683 0.000000 2.994582 3.997686 0.000000 2.994986 4.997688 0.000000 2.995366 5.997690 0.000000 2.995381 6.997814 0.000000 2.994511 7.998266 0.000000 2.995001 9.000000 0.000000 2.994503 10.000001 0.000000 2.994782 11.002310 0.000000 2.996810 12.002311 0.000000 2.997688 13.002311 0.000000 2.997688 14.002311 0.000000 2.997688 15.002311 0.000000 2.997688 16.002312 0.000000 2.988263 17.002312 0.000000 2.994562 18.002312 0.000000 2.972896 19.003457 0.000000 3.997688 -0.004165 0.000000 3.997688 0.996289 0.000000 3.997689 1.996446 0.000000 3.994619 2.996530 0.000000 3.995297 3.996879 0.000000 3.995372 4.998862 0.000000 3.995382 5.998948 0.000000 3.995385 6.999097 0.000000 3.994511 7.999194 0.000000 3.995381 9.000004 0.000000 3.994522 10.000010 0.000000 3.994805 11.000905 0.000000 3.997237 12.002311 0.000000 3.997688 13.002311 0.000000 3.997688 14.002311 0.000000 3.997688 15.002312 0.000000 3.997688 16.002312 0.000000 3.988347 17.002313 0.000000 3.994569 18.003212 0.000000 3.973073 19.004009 0.000000 4.997689 -0.012622 0.000000 4.997689 0.991200 0.000000 4.997687 1.993050 0.000000 4.997489 2.994934 0.000000 4.996522 3.995358 0.000000 4.995384 4.995375 0.000000 4.995384 5.995384 0.000000 4.995386 6.995387 0.000000 4.994548 7.996112 0.000000 4.995383 8.997678 0.000000 4.994524 9.999235 0.000000 4.994805 10.999978 0.000000 4.997237 12.002311 0.000000 4.997689 13.002311 0.000000 4.997689 14.002311 0.000000 4.997689 15.002311 0.000000 4.997689 16.002312 0.000000 4.988350 17.002312 0.000000 4.994590 18.002312 0.000000 4.973070 19.003450 0.000000 5.997690 -0.005769 0.000000 5.997690 0.995416 0.000000 5.997690 1.996185 0.000000 5.997690 2.996528 0.000000 5.996680 3.997693 0.000000 5.995387 4.998509 0.000000 5.995415 5.998867 0.000000 5.996923 6.999200 0.000000 5.996096 7.999984 0.000000 5.995385 9.000007 0.000000 5.994539 10.000974 0.000000 5.994865 11.001515 0.000000 5.997245 12.002311 0.000000 5.997689 13.002311 0.000000 5.997689 14.002311 0.000000 5.997689 15.002312 0.000000 5.997689 16.002312 0.000000 5.988359 17.002313 0.000000 5.994591 18.003283 0.000000 5.973074 19.003853 0.000000 6.997690 -0.004214 0.000000 6.997690 0.996248 0.000000 6.997690 1.996904 0.000000 6.997690 2.997104 0.000000 6.997285 3.997655 0.000000 6.995778 4.997720 0.000000 6.995424 5.998275 0.000000 6.997679 6.999123 0.000000 6.996102 7.999210 0.000000 6.997679 8.999999 0.000000 6.996080 10.000001 0.000000 6.996207 11.002310 0.000000 6.997255 12.002311 0.000000 6.997689 13.002311 0.000000 6.997689 14.002311 0.000000 6.997689 15.002311 0.000000 6.997689 16.002312 0.000000 6.988342 17.002312 0.000000 6.994591 18.002312 0.000000 6.973053 19.003464 0.000000 7.997690 -0.003469 0.000000 7.997690 0.997448 0.000000 7.997690 1.997687 0.000000 7.997690 2.997688 0.000000 7.997692 3.997688 0.000000 7.997679 4.997688 0.000000 7.997321 5.997689 0.000000 7.997684 6.997691 0.000000 7.996105 7.997929 0.000000 7.997685 8.999999 0.000000 7.996088 10.000001 0.000000 7.996218 11.002310 0.000000 7.997677 12.002311 0.000000 7.997689 13.002311 0.000000 7.997689 14.002311 0.000000 7.997689 15.002311 0.000000 7.997689 16.002312 0.000000 7.988355 17.002312 0.000000 7.994595 18.002312 0.000000 7.973026 19.003469 0.000000 8.997690 -0.003469 0.000000 8.997690 0.997688 0.000000 8.997690 1.997688 0.000000 8.997690 2.997688 0.000000 8.997692 3.997689 0.000000 8.997686 4.997689 0.000000 8.997678 5.997689 0.000000 8.997685 6.997689 0.000000 8.996109 7.997690 0.000000 8.997686 9.000000 0.000000 8.996093 10.000001 0.000000 8.996222 11.002310 0.000000 8.997688 12.002311 0.000000 8.997690 13.002311 0.000000 8.997690 14.002311 0.000000 8.997690 15.002311 0.000000 8.997690 16.002312 0.000000 8.988361 17.002312 0.000000 8.994625 18.002312 0.000000 8.973034 19.003469 0.000000 9.997691 -0.003469 0.000000 9.997691 0.997688 0.000000 9.997691 1.997688 0.000000 9.997691 2.997688 0.000000 9.997692 3.997689 0.000000 9.997687 4.997689 0.000000 9.997686 5.997689 0.000000 9.997686 6.997689 0.000000 9.997677 7.997690 0.000000 9.997686 9.000000 0.000000 9.996095 10.000001 0.000000 9.996224 11.002310 0.000000 9.997688 12.002311 0.000000 9.997690 13.002311 0.000000 9.997690 14.002311 0.000000 9.997690 15.002311 0.000000 9.997690 16.002312 0.000000 9.988377 17.002312 0.000000 9.996116 18.002312 0.000000 9.973095 19.003469 0.000000 10.997691 -0.003469 0.000000 10.997691 0.997688 0.000000 10.997691 1.997688 0.000000 10.997691 2.997688 0.000000 10.997693 3.997689 0.000000 10.997694 4.997689 0.000000 10.997694 5.997689 0.000000 10.997692 6.997689 0.000000 10.997692 7.997690 0.000000 10.997692 9.000000 0.000000 10.996095 10.000001 0.000000 10.996233 11.002310 0.000000 10.997689 12.002311 0.000000 10.997690 13.002311 0.000000 10.997690 14.002311 0.000000 10.997690 15.002311 0.000000 10.997690 16.002312 0.000000 10.988474 17.002312 0.000000 10.996117 18.002312 0.000000 10.973227 19.003469 0.000000 11.997691 -0.003469 0.000000 11.997691 0.997688 0.000000 11.997691 1.997688 0.000000 11.997691 2.997688 0.000000 11.997693 3.997689 0.000000 11.997694 4.997689 0.000000 11.997694 5.997689 0.000000 11.997692 6.997689 0.000000 11.997692 7.997690 0.000000 11.997692 9.000000 0.000000 11.996097 10.000001 0.000000 11.996235 11.002310 0.000000 11.997689 12.002311 0.000000 11.997691 13.002311 0.000000 11.997690 14.002311 0.000000 11.997691 15.002311 0.000000 11.997691 16.002312 0.000000 11.988461 17.002312 0.000000 11.996124 18.002312 0.000000 11.973218 19.003469 0.000000 12.997692 -0.003469 0.000000 12.997692 0.997688 0.000000 12.997692 1.997688 0.000000 12.997692 2.997688 0.000000 12.997693 3.997689 0.000000 12.997694 4.997689 0.000000 12.997694 5.997689 0.000000 12.997693 6.997689 0.000000 12.997693 7.997690 0.000000 12.997693 9.000000 0.000000 12.997675 10.000001 0.000000 12.997673 11.002310 0.000000 12.997689 12.002311 0.000000 12.997691 13.002311 0.000000 12.997690 14.002311 0.000000 12.997691 15.002311 0.000000 12.997691 16.002312 0.000000 12.988479 17.002312 0.000000 12.996126 18.002312 0.000000 12.973242 19.003469 0.000000 13.997692 -0.003469 0.000000 13.997692 0.997688 0.000000 13.997692 1.997688 0.000000 13.997692 2.997688 0.000000 13.997694 3.997689 0.000000 13.997694 4.997689 0.000000 13.997694 5.997689 0.000000 13.997693 6.997689 0.000000 13.997693 7.997690 0.000000 13.997693 9.000000 0.000000 13.997685 10.000001 0.000000 13.997683 11.002310 0.000000 13.997689 12.002311 0.000000 13.997691 13.002311 0.000000 13.997690 14.002311 0.000000 13.997691 15.002311 0.000000 13.997691 16.002312 0.000000 13.988515 17.002312 0.000000 13.996128 18.002312 0.000000 13.973262 19.003469 0.000000 14.997692 -0.003469 0.000000 14.997692 0.997688 0.000000 14.997692 1.997688 0.000000 14.997692 2.997688 0.000000 14.997694 3.997689 0.000000 14.997695 4.997689 0.000000 14.997695 5.997689 0.000000 14.997693 6.997689 0.000000 14.997693 7.997690 0.000000 14.997693 9.000000 0.000000 14.997685 10.000001 0.000000 14.997685 11.002310 0.000000 14.997693 12.002311 0.000000 14.997692 13.002311 0.000000 14.997690 14.002311 0.000000 14.997692 15.002311 0.000000 14.997692 16.002312 0.000000 14.988520 17.002312 0.000000 14.996130 18.002312 0.000000 14.973318 19.003469 0.000000 15.997692 -0.003469 0.000000 15.997692 0.997688 0.000000 15.997692 1.997688 0.000000 15.997692 2.997688 0.000000 15.997694 3.997689 0.000000 15.997695 4.997689 0.000000 15.997695 5.997689 0.000000 15.997694 6.997689 0.000000 15.997694 7.997690 0.000000 15.997694 9.000000 0.000000 15.997688 10.000001 0.000000 15.997688 11.002310 0.000000 15.997695 12.002311 0.000000 15.997693 13.002311 0.000000 15.997690 14.002311 0.000000 15.997692 15.002311 0.000000 15.997692 16.002312 0.000000 15.988528 17.002312 0.000000 15.996155 18.002312 0.000000 15.973315 19.003469 0.000000 16.997693 -0.003469 0.000000 16.997693 0.997688 0.000000 16.997693 1.997688 0.000000 16.997693 2.997688 0.000000 16.997695 3.997689 0.000000 16.997695 4.997689 0.000000 16.997695 5.997689 0.000000 16.997694 6.997689 0.000000 16.997694 7.997690
[...]
      <PointData Vectors="vector">
        <DataArray type="Float32" Name="Velocity" NumberOfComponents="3" format="ascii">
-0.015000 -0.009000 0.000000 -0.015000 -0.006000 0.000000 -0.015000 -0.006000 0.000000 -0.015000 -0.006000 0.000000 -0.021000 -0.006000 0.000000 -0.021000 -0.006000 0.000000 -0.021000 -0.006000 0.000000 -0.021000 -0.006000 0.000000 -0.015000 -0.006000 0.000000 -0.021000 0.000000 0.000000 -0.015000 0.000000 0.000000 -0.015000 0.006000 0.000000 -0.015000 0.006000 0.000000 -0.015000 0.006000 0.000000 -0.015000 0.006000 0.000000 -0.015000 0.006000 0.000000 -0.015000 0.006000 0.000000 -0.297009 0.006000 0.000000 -0.015000 0.006000 0.000000 -0.393004 0.009000 0.000000 -0.006000 -0.009000 0.000000 -0.006000 -0.006000 0.000000 -0.018000 -0.006000 0.000000 -0.018000 -0.006000 0.000000 -0.018000 -0.006000 0.000000 -0.018000 -0.006000 0.000000 -0.018000 -0.006000 0.000000 -0.018000 -0.006000 0.000000 -0.018000 -0.006000 0.000000 -0.018000 0.000000 0.000000 -0.018000 0.000000 0.000000 -0.018000 0.006000 0.000000 -0.018000 0.006000 0.000000 -0.006000 0.006000 0.000000 -0.006000 0.006000 0.000000 -0.006000 0.006000 0.000000 -0.006000 0.006000 0.000000 -0.293996 0.006000 0.000000 -0.018000 0.006000 0.000000 -0.378013 0.009000 0.000000 -0.006000 -0.009000 0.000000 -0.006000 -0.006000 0.000000 -0.006000 -0.006000 0.000000 -0.018000 -0.006000 0.000000 -0.018000 -0.006000 0.000000 -0.018000 -0.006000 0.000000 -0.018000 -0.006000 0.000000 -0.018000 -0.006000 0.000000 -0.018000 -0.006000 0.000000 -0.018000 0.000000 0.000000 -0.018000 0.000000 0.000000 -0.018000 0.006000 0.000000 -0.018000 0.006000 0.000000 -0.006000 0.006000 0.000000 -0.006000 0.006000 0.000000 -0.006000 0.006000 0.000000 -0.006000 0.006000 0.000000 -0.300007 0.006000 0.000000 -0.018000 0.006000 0.000000 -0.509998 0.009003 0.000000 -0.006000 -0.009000 0.000000 -0.006000 -0.012000 0.000000 -0.005971 -0.012000 0.000000 -0.018030 -0.006000 0.000000 -0.018003 -0.005997 0.000000 -0.017998 -0.006009 0.000000 -0.011999 -0.006004 0.000000 -0.011998 -0.000007 0.000000 -0.018002 0.000000 0.000000 -0.018000 -0.000000 0.000000 -0.018000 -0.000000 0.000000 -0.018000 0.006000 0.000000 -0.018000 0.006000 0.000000 -0.006000 0.006000 0.000000 -0.006000 0.006000 0.000000 -0.006000 0.006000 0.000000 -0.006000 0.006000 0.000000 -0.300000 0.005999 0.000000 -0.018000 0.006000 0.000000 -0.462009 0.008647 0.000000 -0.006000 -0.015000 0.000000 -0.006000 -0.012000 0.000000 -0.005985 -0.011979 0.000000 -0.018016 -0.011929 0.000000 -0.011986 -0.005975 0.000000 -0.012013 0.000042 0.000000 -0.012007 0.000020 0.000000 -0.011993 0.000027 0.000000 -0.018000 0.000000 0.000000 -0.012000 0.000032 0.000000 -0.018000 0.000034 0.000000 -0.018000 0.000041 0.000000 -0.012000 0.006000 0.000000 -0.006000 0.006000 0.000000 -0.006000 0.006000 0.000000 -0.006000 0.006000 0.000000 -0.006000 0.006000 0.000000 -0.258002 0.006002 0.000000 -0.018001 0.006000 0.000000 -0.573065 0.015869 0.000000 -0.006000 -0.033000 0.000000 -0.006000 -0.030000 0.000000 -0.006000 -0.018020 0.000000 -0.012000 -0.006082 0.000000 -0.012000 -0.012035 0.000000 -0.012001 -0.012065 0.000000 -0.012000 -0.012031 0.000000 -0.012000 -0.012055 0.000000 -0.018000 -0.012044 0.000000 -0.012000 -0.006065 0.000000 -0.018000 -0.000078 0.000000 -0.018000 -0.000092 0.000000 -0.012000 0.006000 0.000000 -0.006000 0.006000 0.000000 -0.006000 0.006000 0.000000 -0.006000 0.006000 0.000000 -0.006000 0.006000 0.000000 -0.281998 0.005998 0.000000 -0.018000 0.006000 0.000000 -0.381096 0.008219 0.000000 -0.006000 -0.015000 0.000000 -0.006000 -0.012000 0.000000 -0.006000 -0.011981 0.000000 -0.006000 -0.011914 0.000000 -0.011988 -0.005958 0.000000 -0.012012 -0.005958 0.000000 -0.012009 0.000021 0.000000 -0.017990 0.000051 0.000000 -0.012001 0.000091 0.000000 -0.011999 0.000033 0.000000 -0.018003 0.000043 0.000000 -0.017999 0.006051 0.000000 -0.011999 0.006000 0.000000 -0.006000 0.006000 0.000000 -0.006000 0.006000 0.000000 -0.006000 0.006000 0.000000 -0.006000 0.006000 0.000000 -0.278997 0.006002 0.000000 -0.017992 0.006000 0.000000 -0.470983 0.015567 0.000000 -0.006000 -0.015000 0.000000 -0.006000 -0.012000 0.000000 -0.006000 -0.005999 0.000000 -0.006000 -0.011998 0.000000 -0.011981 -0.012000 0.000000 -0.006018 -0.000009 0.000000 -0.012001 -0.000005 0.000000 -0.006000 -0.000005 0.000000 -0.012000 -0.000048 0.000000 -0.006000 -0.000000 0.000000 -0.012000 -0.000000 0.000000 -0.012000 0.006000 0.000000 -0.012000 0.006000 0.000000 -0.006000 0.006000 0.000000 -0.006000 0.006000 0.000000 -0.006000 0.006000 0.000000 -0.006000 0.006000 0.000000 -0.255005 0.005999 0.000000 -0.018000 0.006000 0.000000 -0.467920 0.008693 0.000000 -0.006000 -0.009000 0.000000 -0.006000 -0.012000 0.000000 -0.006000 -0.006000 0.000000 -0.006000 -0.005995 0.000000 -0.006000 -0.006000 0.000000 -0.006000 -0.006000 0.000000 -0.018000 -0.006000 0.000000 -0.005992 -0.006013 0.000000 -0.012008 0.000000 0.000000 -0.006000 0.000000 0.000000 -0.012000 0.000000 0.000000 -0.012000 0.006000 0.000000 -0.006000 0.006000 0.000000 -0.006000 0.006000 0.000000 -0.006000 0.006000 0.000000 -0.006000 0.006000 0.000000 -0.006000 0.006000 0.000000 -0.234009 0.006000 0.000000 -0.018000 0.006000 0.000000 -0.537105 0.009002 0.000000 -0.006000 -0.009000 0.000000 -0.006000 -0.006000 0.000000 -0.006000 -0.006000 0.000000 -0.006000 -0.006000 0.000000 -0.006000 -0.006000 0.000000 -0.006000 -0.006000 0.000000 -0.006000 -0.006000 0.000000 -0.006000 -0.006000 0.000000 -0.012000 -0.006000 0.000000 -0.006000 0.000000 0.000000 -0.012000 0.000000 0.000000 -0.012000 0.006000 0.000000 -0.006000 0.006000 0.000000 -0.006000 0.006000 0.000000 -0.006000 0.006000 0.000000 -0.006000 0.006000 0.000000 -0.006000 0.006000 0.000000 -0.221997 0.006000 0.000000 -0.018000 0.006000 0.000000 -0.528068 0.009000 0.000000 -0.006000 -0.009000 0.000000 -0.006000 -0.006000 0.000000 -0.006000 -0.006000 0.000000 -0.006000 -0.006000 0.000000 -0.006000 -0.006000 0.000000 -0.006000 -0.006000 0.000000 -0.006000 -0.006000 0.000000 -0.006000 -0.006000 0.000000 -0.006000 -0.006000 0.000000 -0.006000 -0.000000 0.000000 -0.012000 0.000000 0.000000 -0.012000 0.006000 0.000000 -0.006000 0.006000 0.000000 -0.006000 0.006000 0.000000 -0.009000 0.006000 0.000000 -0.006000 0.006000 0.000000 -0.006000 0.006000 0.000000 -0.276021 0.006000 0.000000 -0.012000 0.006000 0.000000 -0.497849 0.009000 0.000000 -0.006000 -0.009000 0.000000 -0.006000 -0.006000 0.000000 -0.006000 -0.006000 0.000000 -0.006000 -0.006000 0.000000 -0.006000 -0.006000 0.000000 -0.006000 -0.006000 0.000000 -0.006000 -0.006000 0.000000 -0.006000 -0.006000 0.000000 -0.006000 -0.006000 0.000000 -0.006000 0.000000 0.000000 -0.012000 0.000000 0.000000 -0.012000 0.006000 0.000000 -0.006000 0.006000 0.000000 -0.006000 0.006000 0.000000 -0.012000 0.006000 0.000000 -0.006000 0.006000 0.000000 -0.006000 0.006000 0.000000 -0.303011 0.006000 0.000000 -0.012000 0.006000 0.000000 -0.423071 0.009000 0.000000 -0.006000 -0.009000 0.000000 -0.006000 -0.006000 0.000000 -0.006000 -0.006000 0.000000 -0.006000 -0.006000 0.000000 -0.006000 -0.006000 0.000000 -0.006000 -0.006000 0.000000 -0.006000 -0.006000 0.000000 -0.006000 -0.006000 0.000000 -0.006000 -0.006000 0.000000 -0.006000 0.000000 0.000000 -0.012000 0.000000 0.000000 -0.012000 0.006000 0.000000 -0.006000 0.006000 0.000000 -0.006000 0.006000 0.000000 -0.009000 0.006000 0.000000 -0.006000 0.006000 0.000000 -0.006000 0.006000 0.000000 -0.285006 0.006000 0.000000 -0.012000 0.006000 0.000000 -0.387041 0.009000 0.000000 -0.006000 -0.009000 0.000000 -0.006000 -0.006000 0.000000 -0.006000 -0.006000 0.000000 -0.006000 -0.006000 0.000000 -0.006000 -0.006000 0.000000 -0.006000 -0.006000 0.000000 -0.006000 -0.006000 0.000000 -0.006000 -0.006000 0.000000 -0.006000 -0.006000 0.000000 -0.006000 0.000000 0.000000 -0.006000 0.000000 0.000000 -0.006000 0.006000 0.000000 -0.006000 0.006000 0.000000 -0.006000 0.006000 0.000000 -0.009000 0.006000 0.000000 -0.006000 0.006000 0.000000 -0.006000 0.006000 0.000000 -0.239987 0.006000 0.000000 -0.012000 0.006000 0.000000 -0.426353 0.009000 0.000000 -0.006000 -0.009000 0.000000 -0.006000 -0.006000 0.000000 -0.006000 -0.006000 0.000000 -0.006000 -0.006000 0.000000 -0.006000 -0.006000 0.000000 -0.006000 -0.006000 0.000000 -0.006000 -0.006000 0.000000 -0.006000 -0.006000 0.000000 -0.006000 -0.006000 0.000000 -0.006000 0.000000 0.000000 -0.006000 0.000000 0.000000 -0.006000 0.006000 0.000000 -0.006000 0.006000 0.000000 -0.006000 0.006000 0.000000 -0.015000 0.006000 0.000000 -0.006000 0.006000 0.000000 -0.006000 0.006000 0.000000 -0.311986 0.006000 0.000000 -0.012000 0.006000 0.000000 -0.509865 0.009000 0.000000 -0.006000 -0.009000 0.000000 -0.006000 -0.006000 0.000000 -0.006000 -0.006000 0.000000 -0.006000 -0.006000 0.000000 -0.006000 -0.006000 0.000000 -0.006000 -0.006000 0.000000 -0.006000 -0.006000 0.000000 -0.006000 -0.006000 0.000000 -0.006000 -0.006000 0.000000 -0.006000 0.000000 0.000000 -0.006000 0.000000 0.000000 -0.006000 0.006000 0.000000 -0.006000 0.006000 0.000000 -0.006000 0.006000 0.000000 -0.012000 0.006000 0.000000 -0.006000 0.006000 0.000000 -0.006000 0.006000 0.000000 -0.324018 0.006000 0.000000 -0.012000 0.006000 0.000000 -0.465136 0.009000 0.000000 -0.006000 -0.009000 0.000000 -0.006000 -0.006000 0.000000 -0.006000 -0.006000 0.000000 -0.006000 -0.006000 0.000000 -0.006000 -0.006000 0.000000 -0.006000 -0.006000 0.000000 -0.006000 -0.006000 0.000000 -0.006000 -0.006000 0.000000 -0.006000 -0.006000 0.000000 -0.006000 0.000000 0.000000 -0.006000 0.000000 0.000000 -0.006000 0.006000 0.000000 -0.006000 0.006000 0.000000 -0.006000 0.006000 0.000000 -0.015000 0.006000 0.000000 -0.006000 0.006000 0.000000 -0.006000 0.006000 0.000000 -0.263991 0.006000 0.000000 -0.012000 0.006000 0.000000 -0.401826 0.009000 0.000000 -0.006000 -0.009000 0.000000 -0.006000 -0.006000 0.000000 -0.006000 -0.006000 0.000000 -0.006000 -0.006000 0.000000 -0.006000 -0.006000 0.000000 -0.006000 -0.006000 0.000000 -0.006000 -0.006000 0.000000 -0.006000 -0.006000 0.000000 -0.006000 -0.006000 0.000000 -0.006000 0.000000 0.000000 -0.006000 0.000000 0.000000 -0.006000 0.006000 0.000000 -0.006000 0.006000 0.000000 -0.006000 0.006000 0.000000 -0.012000 0.006000 0.000000 -0.006000 0.006000 0.000000 -0.006000 0.006000 0.000000 -0.267095 0.006000 0.000000 -0.012000 0.006000 0.000000 -0.443812 0.009000 0.000000 -0.006000 -0.009000 0.000000 -0.006000 -0.006000 0.000000 -0.006000 -0.006000 0.000000 -0.006000 -0.006000 0.000000 -0.006000 -0.006000 0.000000 -0.006000 -0.006000 0.000000 -0.006000 -0.006000 0.000000 -0.006000 -0.006000 0.000000 -0.006000 -0.006000 0.000000 -0.006000 0.000000 0.000000 -0.006000 0.000000 0.000000 -0.006000 0.006000 0.000000 -0.006000 0.006000 0.000000 -0.006000 0.006000 0.000000 -0.012000 0.006000 0.000000 -0.006000 0.006000 0.000000 -0.006000 0.006000 0.000000 -0.335988 0.006000 0.000000 -0.006000 0.006000 0.000000 -0.450552 0.009000 0.000000 -0.006000 -0.009000 0.000000 -0.006000 -0.006000 0.000000 -0.006000 -0.006000 0.000000 -0.006000 -0.006000 0.000000 -0.006000 -0.006000 0.000000 -0.006000 -0.006000 0.000000 -0.006000 -0.006000 0.000000 -0.006000 -0.006000 0.000000 -0.006000 -0.006000 0.000000 -0.006000 0.000000 0.000000 -0.006000 0.000000 0.000000 -0.006000 0.006000 0.000000 -0.006000 0.006000 0.000000 -0.006000 0.006000 0.000000 -0.012000 0.006000 0.000000 -0.006000 0.006000 0.000000 -0.006000 0.006000 0.000000 -0.290909 0.006000 0.000000 -0.006000 0.006000 0.000000 -0.398302 0.009000 0.000000 -0.006000 -0.009000 0.000000 -0.006000 -0.006000 0.000000 -0.006000 -0.006000 0.000000 -0.006000 -0.006000 0.000000 -0.006000 -0.006000 0.000000 -0.006000 -0.006000 0.000000 -0.006000 -0.006000 0.000000 -0.006000 -0.006000 0.000000 -0.006000 -0.006000 0.000000 -0.006000 0.000000 0.000000 -0.006000 0.000000 0.000000 -0.006000 0.006000 0.000000 -0.006000 0.006000 0.000000 -0.006000 0.006000 0.000000 -0.012000 0.006000 0.000000 -0.006000 0.006000 0.000000 -0.006000 0.006000 0.000000 -0.221998 0.006000 0.000000 -0.006000 0.006000 0.000000 -0.405005 0.009000 0.000000 -0.006000 -0.009000 0.000000 -0.006000 -0.006000 0.000000 -0.006000 -0.006000 0.000000 -0.006000 -0.006000 0.000000 -0.006000 -0.006000 0.000000 -0.006000 -0.006000 0.000000 -0.006000 -0.006000 0.000000 -0.006000 -0.006000 0.000000 -0.006000 -0.006000 0.000000 -0.006000 0.000000 0.000000 -0.006000 0.000000 0.000000 -0.006000 0.006000 0.000000 -0.006000 0.006000 0.000000 -0.006000 0.006000 0.000000 -0.012000 0.006000 0.000000 -0.006000 0.006000 0.000000 -0.006000 0.006000 0.000000 -0.291227 0.006000 0.000000 -0.006000 0.006000 0.000000 -0.490586 0.009000 0.000000 -0.006000 -0.009000 0.000000 -0.006000 -0.006000 0.000000 -0.006000 -0.006000 0.000000 -0.006000 -0.006000 0.000000 -0.006000 -0.006000 0.000000 -0.006000 -0.006000 0.000000 -0.006000 -0.006000 0.000000 -0.006000 -0.006000 0.000000 -0.006000 -0.006000 0.000000 -0.006000 0.000000 0.000000 -0.006000 0.000000 0.000000 -0.006000 0.006000 0.000000 -0.000000 0.006000 0.000000 -0.006000 0.006000 0.000000 -0.015000 0.006000 0.000000 -0.006000 0.006000 0.000000 -0.006000 0.006000 0.000000 -0.303064 0.006000 0.000000 0.000000 0.006000 0.000000 -0.404944 0.009000 0.000000 -0.006000 -0.009000 0.000000 -0.006000 -0.006000 0.000000 -0.006000 -0.006000 0.000000 -0.006000 -0.006000 0.000000 -0.006000 -0.006000 0.000000 -0.006000 -0.006000 0.000000 -0.006000 -0.006000 0.000000 -0.006000 -0.006000 0.000000 -0.006000 -0.006000 0.000000 -0.006000 0.000000 0.000000 -0.006000 0.000000 0.000000 -0.006000 0.006000 0.000000 -0.000000 0.006000 0.000000 -0.006000 0.006000 0.000000 -0.015000 0.006000 0.000000 -0.006000 0.006000 0.000000 -0.006000 0.006000 0.000000 -0.327084 0.006000 0.000000 0.000000 0.006000 0.000000 -0.308642 0.009000 0.000000 -0.006000 -0.009000 0.000000 -0.006000 -0.006000 0.000000 -0.006000 -0.006000 0.000000 -0.006000 -0.006000 0.000000 -0.006000 -0.006000 0.000000 -0.006000 -0.006000 0.000000 -0.006000 -0.006000 0.000000 -0.006000 -0.006000 0.000000 -0.006000 -0.006000 0.000000 -0.006000 0.000000 0.000000 -0.006000 0.000000 0.000000 -0.006000 0.006000 0.000000 -0.000000 0.006000 0.000000 -0.006000 0.006000 0.000000 -0.012000 0.006000 0.000000 -0.006000 0.006000 0.000000 -0.006000 0.006000 0.000000 -0.306100 0.006000 0.000000 -0.000000 0.006000 0.000000 -0.435480 0.009000 0.000000 -0.006000 -0.009000 0.000000 -0.006000 -0.006000 0.000000 -0.006000 -0.006000 0.000000 -0.006000 -0.006000 0.000000 -0.006000 -0.006000 0.000000 -0.006000 -0.006000 0.000000 -0.006000 -0.006000 0.000000 -0.006000 -0.006000 0.000000 -0.006000 -0.006000 0.000000 -0.006000 0.000000 0.000000 -0.006000 0.000000 0.000000 -0.006000 0.006000 0.000000 -0.000000 0.006000 0.000000 -0.006000 0.006000 0.000000 -0.012000 0.006000 0.000000 -0.006000 0.006000 0.000000 -0.006000 0.006000 0.000000 -0.252819 0.005999 0.000000 0.000000 0.006000 0.000000 -0.514080 0.008994 0.000000 -0.006000 -0.009000 0.000000 -0.006000 -0.006000 0.000000 -0.006000 -0.006000 0.000000 -0.006000 -0.006000 0.000000 -0.000000 -0.006000 0.000000 -0.006000 -0.006000 0.000000 -0.006000 -0.006000 0.000000 -0.006000 -0.006000 0.000000 -0.006000 -0.006000 0.000000 -0.006000 0.000000 0.000000 -0.006000 0.000000 0.000000 -0.132003 0.006000 0.000000 -0.000000 0.006000 0.000000 -0.006000 0.006000 0.000000 -0.012000 0.006000 0.000000 -0.006000 0.006000 0.000000 -0.006000 0.006000 0.000000 -0.245331 0.006052 0.000000 0.000000 0.006000 0.000000 -0.417851 0.009254 0.000000 -0.006000 -0.009000 0.000000 -0.006000 -0.006000 0.000000 -0.006000 -0.006000 0.000000 -0.006000 -0.006000 0.000000 0.000000 -0.006000 0.000000 -0.006000 -0.006000 0.000000 -0.006000 -0.006000 0.000000 -0.006000 -0.006000 0.000000 -0.006000 -0.006000 0.000000 -0.006000 0.000000 0.000000 -0.000000 0.000000 0.000000 -0.165005 0.006107 0.000000 -0.000000 0.006000 0.000000 -0.006000 0.006000 0.000000 -0.012000 0.006000 0.000000 -0.006000 0.006000 0.000000 -0.006000 0.006000 0.000000 -0.253100 0.003883 0.000000 0.006000 0.006000 0.000000 -0.294607 0.002993 0.000000 -0.006000 -0.009000 0.000000 -0.006000 -0.012000 0.000000 -0.006001 -0.006000 0.000000 -0.000005 -0.005989 0.000000 0.000013 -0.006000 0.000000 -0.006008 -0.006000 0.000000 0.000001 -0.005989 0.000000 -0.005999 -0.005992 0.000000 -0.006001 -0.000000 0.000000 -0.006000 -0.000000 0.000000 -0.000000 -0.000000 0.000000 -0.108030 0.003670 0.000000 -0.000002 0.000055 0.000000 -0.006004 -0.000000 0.000000 -0.018000 0.007178 0.000000 -0.006000 0.012000 0.000000 -0.005999 0.012000 0.000000 -0.346973 0.029314 0.000000 0.006242 0.035999 0.000000 -0.641122 0.072932 0.000000 -0.006000 -0.183001 0.000000 -0.006002 -0.180005 0.000000 -0.005996 -0.173940 0.000000 -0.000613 -0.167985 0.000000 0.000448 -0.185984 0.000000 0.001280 -0.173957 0.000000 -0.001281 -0.173956 0.000000 0.004512 -0.204002 0.000000 0.002047 -0.125982 0.000000 -0.000821 -0.125822 0.000000 0.000711 -0.236915 0.000000 -0.146831 -0.227153 0.000000 0.011109 -0.096047 0.000000 -0.006761 -0.173995 0.000000 -0.101620 -0.181353 0.000000 -0.006070 -0.078024 0.000000 0.006277 -0.023921 0.000000 -2.488764 -0.224345 0.000000 0.029703 -0.083570 0.000000 -0.755406 0.001873 0.000000 -0.011058 -3.195059 0.000000 -0.022876 -3.252059 0.000000 -0.026486 -3.294108 0.000000 -0.001032 -3.303114 0.000000 -0.021385 -3.236907 0.000000 -0.051200 -7.072176 0.000000 0.148817 -5.553299 0.000000 -0.284569 -5.935132 0.000000 0.344386 -6.087143 0.000000 -0.566267 -3.867324 0.000000 0.355756 -6.833205 0.000000 0.297952 -0.627348 0.000000 -0.321214 -7.011274 0.000000 0.367888 -1.002504 0.000000 0.121508 0.423115 0.000000 -0.200973 -0.508248 0.000000 0.554060 -3.209115 0.000000 0.357306 -2.659436 0.000000 -1.325171 1.017179 0.000000 4.959206 -1.464986 0.000000 -0.011432 -3.207063 0.000000 -0.010894 -3.198151 0.000000 -0.023684 -3.252150 0.000000 0.003289 -3.351176 0.000000 -0.021023 -3.299127 0.000000 -0.042626 -7.983055 0.000000 0.096653 -4.843723 0.000000 -0.345304 -8.233347 0.000000 0.434197 -4.054332 0.000000 -0.591034 -8.932059 0.000000 0.370967 -3.138357 0.000000 0.720076 -7.010126 0.000000 -1.251073 -4.417158 0.000000 0.502687 -5.845256 0.000000 0.239833 -4.177173 0.000000 -1.275646 -0.646000 0.000000 0.973085 -5.151201 0.000000 0.796454 -1.414352 0.000000 -3.726640 -0.828570 0.000000 -1.624471 -0.992051 0.000000 -0.011508 -3.180046 0.000000 -0.011521 -3.252030 0.000000 -0.017091 -3.219090 0.000000 0.004057 -3.201171 0.000000 -0.026862 -3.284256 0.000000 -0.004476 -6.707264 0.000000 0.129944 -6.045905 0.000000 -0.333931 -8.682684 0.000000 0.339909 -3.567911 0.000000 -0.595141 -8.943134 0.000000 0.314334 -3.028472 0.000000 0.775279 -6.991344 0.000000 -1.233996 -4.310619 0.000000 0.512911 -5.841579 0.000000 0.253135 -3.976340 0.000000 -1.122853 -0.221228 0.000000 1.010656 -2.748268 0.000000 0.958885 -4.233666 0.000000 -1.235828 -8.440543 0.000000 -1.171762 -2.796495 0.000000 -0.011546 -3.285070 0.000000 -0.002643 -3.231092 0.000000 -0.009878 -3.246178 0.000000 0.005238 -3.252325 0.000000 -0.028720 -3.265843 0.000000 -0.023828 -8.684005 0.000000 0.129294 -4.230647 0.000000 -0.353113 -8.136583 0.000000 0.344212 -4.109722 0.000000 -0.545071 -8.256245 0.000000 0.159127 -3.684041 0.000000 0.959743 -7.460685 0.000000 -1.269327 -3.928485 0.000000 0.504385 -5.852984 0.000000 0.222336 -4.008750 0.000000 -1.107981 0.075447 0.000000 0.999275 -2.838397 0.000000 1.422904 -3.080263 0.000000 -1.173747 -8.916457 0.000000 -0.328754 -4.061205 0.000000 -0.005828 -3.243083 0.000000 -0.009230 -3.213032 0.000000 -0.016073 -3.300141 0.000000 0.026389 -3.216041 0.000000 -0.014720 -3.281096 0.000000 -0.028802 -7.994005 0.000000 0.140887 -4.765593 0.000000 -0.290411 -8.753967 0.000000 0.320957 -3.621440 0.000000 -0.571543 -8.510569 0.000000 0.097879 -3.488426 0.000000 1.023896 -7.614472 0.000000 -1.291050 -3.771303 0.000000 0.531087 -6.325093 0.000000 0.191623 -3.674871 0.000000 -1.050729 0.191109 0.000000 0.978745 -2.910256 0.000000 2.006606 -3.513741 0.000000 -1.714188 -7.62144