<VTKFile type="UnstructuredGrid" version="0.1" byte_order="LittleEndian">
  <UnstructuredGrid>
    <Piece NumberOfPoints="2000" NumberOfCells="0">
      <Points>
        <DataArray name="Position" type="Float32" NumberOfComponents="3" format="ascii">
-0.002064 -0.001241 0.000000 -0.002064 0.999173 0.000000 -0.002064 1.999173 0.000000 -0.002064 2.999173 0.000000 -0.002724 3.999174 0.000000 -0.002858 4.999174 0.000000 -0.002843 5.999174 0.000000 -0.002879 6.999174 0.000000 -0.002055 7.999175 0.000000 -0.002878 9.000000 0.000000 -0.002051 10.000001 0.000000 -0.002050 11.000825 0.000000 -0.002052 12.000826 0.000000 -0.002052 13.000826 0.000000 -0.002052 14.000826 0.000000 -0.002046 15.000826 0.000000 -0.002046 16.000827 0.000000 -0.002046 17.000827 0.000000 -0.002046 18.000827 0.000000 -0.002046 19.001241 0.000000 0.999170 -0.001241 0.000000 0.999170 0.999173 0.000000 0.999170 1.999173 0.000000 0.998998 2.999173 0.000000 0.998266 3.999174 0.000000 0.997562 4.999174 0.000000 0.997632 5.999174 0.000000 0.998351 6.999174 0.000000 0.998963 7.999175 0.000000 0.998352 9.000000 0.000000 0.998929 10.000001 0.000000 0.999163 11.000825 0.000000 0.999164 12.000826 0.000000 0.999164 13.000826 0.000000 0.999164 14.000826 0.000000 0.999161 15.000826 0.000000 0.999161 16.000827 0.000000 0.999161 17.000827 0.000000 0.998990 18.000827 0.000000 0.998782 19.001241 0.000000 1.999173 -0.001241 0.000000 1.999173 0.999173 0.000000 1.999173 1.999173 0.000000 1.999002 2.999173 0.000000 1.998984 3.999174 0.000000 1.998343 4.999174 0.000000 1.998336 5.999174 0.000000 1.998355 6.999174 0.000000 1.998964 7.999175 0.000000 1.998355 9.000000 0.000000 1.998954 10.000001 0.000000 1.999173 11.000825 0.000000 1.999173 12.000826 0.000000 1.999173 13.000826 0.000000 1.999173 14.000826 0.000000 1.999173 15.000826 0.000000 1.999173 16.000827 0.000000 1.999173 17.000827 0.000000 1.999000 18.000827 0.000000 1.998796 19.001241 0.000000 2.999173 -0.001241 0.000000 2.999173 0.999173 0.000000 2.999173 1.999173 0.000000 2.999008 2.999173 0.000000 2.999019 3.999173 0.000000 2.998351 4.999174 0.000000 2.998353 5.999174 0.000000 2.998359 6.999174 0.000000 2.998966 7.999175 0.000000 2.998359 9.000000 0.000000 2.998958 10.000001 0.000000 2.999173 11.000825 0.000000 2.999173 12.000826 0.000000 2.999173 13.000826 0.000000 2.999173 14.000826 0.000000 2.999173 15.000826 0.000000 2.999173 16.000827 0.000000 2.999173 17.000827 0.000000 2.999017 18.000827 0.000000 2.998807 19.001241 0.000000 3.999173 -0.001241 0.000000 3.999173 0.999153 0.000000 3.999173 1.999173 0.000000 3.999076 2.999173 0.000000 3.999036 3.999174 0.000000 3.998353 4.999174 0.000000 3.998358 5.999175 0.000000 3.998979 6.999175 0.000000 3.998966 7.999194 0.000000 3.999167 9.000000 0.000000 3.998977 10.000001 0.000000 3.999173 11.000825 0.000000 3.999173 12.000826 0.000000 3.999173 13.000826 0.000000 3.999173 14.000826 0.000000 3.999173 15.000826 0.000000 3.999173 16.000827 0.000000 3.999173 17.000827 0.000000 3.999025 18.000827 0.000000 3.998818 19.001241 0.000000 4.999174 -0.004454 0.000000 4.999174 0.997508 0.000000 4.999174 1.997529 0.000000 4.999167 2.997534 0.000000 4.999168 3.998336 0.000000 4.998354 4.998349 0.000000 4.998389 5.998358 0.000000 4.999007 6.998369 0.000000 4.999003 7.999093 0.000000 4.999172 8.999173 0.000000 4.998979 9.999254 0.000000 4.999173 11.000001 0.000000 4.999174 12.000826 0.000000 4.999174 13.000826 0.000000 4.999174 14.000826 0.000000 4.999174 15.000826 0.000000 4.999174 16.000827 0.000000 4.999174 17.000827 0.000000 4.999045 18.000827 0.000000 4.998843 19.001241 0.000000 5.999175 -0.002057 0.000000 5.999175 0.998386 0.000000 5.999175 1.999150 0.000000 5.999175 2.999166 0.000000 5.999175 3.999174 0.000000 5.998360 4.999174 0.000000 5.998394 5.999196 0.000000 5.999165 6.999962 0.000000 5.999067 7.999981 0.000000 5.999172 9.000002 0.000000 5.998995 10.000019 0.000000 5.999173 11.000825 0.000000 5.999174 12.000826 0.000000 5.999174 13.000826 0.000000 5.999174 14.000826 0.000000 5.999174 15.000826 0.000000 5.999174 16.000827 0.000000 5.999174 17.000827 0.000000 5.999046 18.000827 0.000000 5.998984 19.001241 0.000000 6.999175 -0.001241 0.000000 6.999175 0.999128 0.000000 6.999175 1.999173 0.000000 6.999175 2.999173 0.000000 6.999175 3.999173 0.000000 6.999165 4.999173 0.000000 6.999165 5.999174 0.000000 6.999170 6.999174 0.000000 6.999072 7.999222 0.000000 6.999173 8.999999 0.000000 6.999050 10.000001 0.000000 6.999174 11.000825 0.000000 6.999174 12.000826 0.000000 6.999174 13.000826 0.000000 6.999174 14.000826 0.000000 6.999174 15.000826 0.000000 6.999174 16.000827 0.000000 6.999174 17.000827 0.000000 6.999046 18.000827 0.000000 6.998986 19.001241 0.000000 7.999175 -0.001241 0.000000 7.999175 0.999173 0.000000 7.999175 1.999173 0.000000 7.999175 2.999173 0.000000 7.999176 3.999173 0.000000 7.999171 4.999174 0.000000 7.999171 5.999174 0.000000 7.999171 6.999174 0.000000 7.999075 7.999175 0.000000 7.999174 8.999999 0.000000 7.999058 10.000001 0.000000 7.999174 11.000825 0.000000 7.999174 12.000826 0.000000 7.999174 13.000826 0.000000 7.999174 14.000826 0.000000 7.999174 15.000826 0.000000 7.999174 16.000827 0.000000 7.999174 17.000827 0.000000 7.999050 18.000827 0.000000 7.998989 19.001241 0.000000 8.999175 -0.001241 0.000000 8.999175 0.999173 0.000000 8.999175 1.999173 0.000000 8.999175 2.999173 0.000000 8.999176 3.999174 0.000000 8.999172 4.999174 0.000000 8.999173 5.999174 0.000000 8.999171 6.999174 0.000000 8.999079 7.999175 0.000000 8.999175 9.000000 0.000000 8.999063 10.000001 0.000000 8.999175 11.000825 0.000000 8.999175 12.000826 0.000000 8.999175 13.000826 0.000000 8.999175 14.000826 0.000000 8.999175 15.000826 0.000000 8.999175 16.000827 0.000000 8.999175 17.000827 0.000000 8.999080 18.000827 0.000000 8.998991 19.001241 0.000000 9.999176 -0.001241 0.000000 9.999176 0.999173 0.000000 9.999176 1.999173 0.000000 9.999176 2.999173 0.000000 9.999176 3.999174 0.000000 9.999174 4.999174 0.000000 9.999174 5.999174 0.000000 9.999174 6.999174 0.000000 9.999162 7.999175 0.000000 9.999175 9.000000 0.000000 9.999065 10.000001 0.000000 9.999175 11.000825 0.000000 9.999175 12.000826 0.000000 9.999175 13.000826 0.000000 9.999175 14.000826 0.000000 9.999175 15.000826 0.000000 9.999175 16.000827 0.000000 9.999175 17.000827 0.000000 9.999086 18.000827 0.000000 9.998995 19.001241 0.000000 10.999176 -0.001241 0.000000 10.999176 0.999173 0.000000 10.999176 1.999173 0.000000 10.999176 2.999173 0.000000 10.999177 3.999174 0.000000 10.999179 4.999174 0.000000 10.999179 5.999174 0.000000 10.999177 6.999174 0.000000 10.999177 7.999175 0.000000 10.999177 9.000000 0.000000 10.999065 10.000001 0.000000 10.999175 11.000825 0.000000 10.999175 12.000826 0.000000 10.999175 13.000826 0.000000 10.999175 14.000826 0.000000 10.999175 15.000826 0.000000 10.999175 16.000827 0.000000 10.999175 17.000827 0.000000 10.999087 18.000827 0.000000 10.998997 19.001241 0.000000 11.999176 -0.001241 0.000000 11.999176 0.999173 0.000000 11.999176 1.999173 0.000000 11.999176 2.999173 0.000000 11.999177 3.999174 0.000000 11.999179 4.999174 0.000000 11.999179 5.999174 0.000000 11.999177 6.999174 0.000000 11.999177 7.999175 0.000000 11.999177 9.000000 0.000000 11.999067 10.000001 0.000000 11.999176 11.000825 0.000000 11.999176 12.000826 0.000000 11.999176 13.000826 0.000000 11.999176 14.000826 0.000000 11.999176 15.000826 0.000000 11.999176 16.000827 0.000000 11.999176 17.000827 0.000000 11.999094 18.000827 0.000000 11.999007 19.001241 0.000000 12.999177 -0.001241 0.000000 12.999177 0.999173 0.000000 12.999177 1.999173 0.000000 12.999177 2.999173 0.000000 12.999177 3.999174 0.000000 12.999179 4.999174 0.000000 12.999179 5.999174 0.000000 12.999178 6.999174 0.000000 12.999178 7.999175 0.000000 12.999178 9.000000 0.000000 12.999160 10.000001 0.000000 12.999176 11.000825 0.000000 12.999176 12.000826 0.000000 12.999176 13.000826 0.000000 12.999176 14.000826 0.000000 12.999176 15.000826 0.000000 12.999176 16.000827 0.000000 12.999176 17.000827 0.000000 12.999096 18.000827 0.000000 12.999009 19.001241 0.000000 13.999177 -0.001241 0.000000 13.999177 0.999173 0.000000 13.999177 1.999173 0.000000 13.999177 2.999173 0.000000 13.999177 3.999174 0.000000 13.999179 4.999174 0.000000 13.999179 5.999174 0.000000 13.999178 6.999174 0.000000 13.999178 7.999175 0.000000 13.999178 9.000000 0.000000 13.999170 10.000001 0.000000 13.999176 11.000825 0.000000 13.999176 12.000826 0.000000 13.999176 13.000826 0.000000 13.999176 14.000826 0.000000 13.999176 15.000826 0.000000 13.999176 16.000827 0.000000 13.999176 17.000827 0.000000 13.999098 18.000827 0.000000 13.999159 19.001241 0.000000 14.999177 -0.001241 0.000000 14.999177 0.999173 0.000000 14.999177 1.999173 0.000000 14.999177 2.999173 0.000000 14.999178 3.999174 0.000000 14.999180 4.999174 0.000000 14.999180 5.999174 0.000000 14.999178 6.999174 0.000000 14.999178 7.999175 0.000000 14.999178 9.000000 0.000000 14.999170 10.000001 0.000000 14.999177 11.000825 0.000000 14.999177 12.000826 0.000000 14.999177 13.000826 0.000000 14.999177 14.000826 0.000000 14.999177 15.000826 0.000000 14.999177 16.000827 0.000000 14.999177 17.000827 0.000000 14.999100 18.000827 0.000000 14.999171 19.001241 0.000000 15.999177 -0.001241 0.000000 15.999177 0.999173 0.000000 15.999177 1.999173 0.000000 15.999177 2.999173 0.000000 15.999178 3.999174 0.000000 15.999180 4.999174 0.000000 15.999180 5.999174 0.000000 15.999179 6.999174 0.000000 15.999179 7.999175 0.000000 15.999179 9.000000 0.000000 15.999173 10.000001 0.000000 15.999177 11.000825 0.000000 15.999178 12.000826 0.000000 15.999178 13.000826 0.000000 15.999178 14.000826 0.000000 15.999177 15.000826 0.000000 15.999177 16.000827 0.000000 15.999177 17.000827 0.000000 15.999125 18.000827 0.000000 15.999171 19.001241 0.000000 16.999178 -0.001241 0.000000 16.999178 0.999173 0.000000 16.999178 1.999173 0.000000 16.999178 2.999173 0.000000 16.999178 3.999174 0.000000 16.999180 4.999174 0.000000 16.999180 5.999174 0.000000 16.999179 6.999174 0.000000 16.999179 7.999175
[...]
      <PointData Vectors="vector">
        <DataArray type="Float32" Name="Velocity" NumberOfComponents="3" format="ascii">
-0.015000 -0.009000 0.000000 -0.015000 -0.006000 0.000000 -0.015000 -0.006000 0.000000 -0.015000 -0.006000 0.000000 -0.021000 -0.006000 0.000000 -0.021000 -0.006000 0.000000 -0.021000 -0.006000 0.000000 -0.021000 -0.006000 0.000000 -0.015000 -0.006000 0.000000 -0.021000 0.000000 0.000000 -0.015000 0.000000 0.000000 -0.015000 0.006000 0.000000 -0.015000 0.006000 0.000000 -0.015000 0.006000 0.000000 -0.015000 0.006000 0.000000 -0.015000 0.006000 0.000000 -0.015000 0.006000 0.000000 -0.015000 0.006000 0.000000 -0.015000 0.006000 0.000000 -0.015000 0.009000 0.000000 -0.006000 -0.009000 0.000000 -0.006000 -0.006000 0.000000 -0.006000 -0.006000 0.000000 -0.018000 -0.006000 0.000000 -0.012000 -0.006000 0.000000 -0.018000 -0.006000 0.000000 -0.018000 -0.006000 0.000000 -0.012000 -0.006000 0.000000 -0.018000 -0.006000 0.000000 -0.012000 0.000000 0.000000 -0.018000 0.000000 0.000000 -0.006000 0.006000 0.000000 -0.006000 0.006000 0.000000 -0.006000 0.006000 0.000000 -0.006000 0.006000 0.000000 -0.006000 0.006000 0.000000 -0.006000 0.006000 0.000000 -0.006000 0.006000 0.000000 -0.018000 0.006000 0.000000 -0.018000 0.009000 0.000000 -0.006000 -0.009000 0.000000 -0.006000 -0.006000 0.000000 -0.006000 -0.006000 0.000000 -0.018000 -0.006000 0.000000 -0.018000 -0.006000 0.000000 -0.012000 -0.006000 0.000000 -0.012000 -0.006000 0.000000 -0.012000 -0.006000 0.000000 -0.018000 -0.006000 0.000000 -0.012000 0.000000 0.000000 -0.018000 0.000000 0.000000 -0.006000 0.006000 0.000000 -0.006000 0.006000 0.000000 -0.006000 0.006000 0.000000 -0.006000 0.006000 0.000000 -0.006000 0.006000 0.000000 -0.006000 0.006000 0.000000 -0.006000 0.006000 0.000000 -0.018000 0.006000 0.000000 -0.018000 0.009000 0.000000 -0.006000 -0.009000 0.000000 -0.006000 -0.006000 0.000000 -0.006000 -0.006000 0.000000 -0.018000 -0.006000 0.000000 -0.018000 -0.006000 0.000000 -0.012000 -0.006000 0.000000 -0.012000 -0.006000 0.000000 -0.012000 -0.006000 0.000000 -0.018000 -0.006000 0.000000 -0.012000 -0.000000 0.000000 -0.018000 -0.000000 0.000000 -0.006000 0.006000 0.000000 -0.006000 0.006000 0.000000 -0.006000 0.006000 0.000000 -0.006000 0.006000 0.000000 -0.006000 0.006000 0.000000 -0.006000 0.006000 0.000000 -0.006000 0.006000 0.000000 -0.018000 0.006000 0.000000 -0.018000 0.009000 0.000000 -0.006000 -0.009000 0.000000 -0.006000 -0.012000 0.000000 -0.006000 -0.006000 0.000000 -0.018000 -0.005929 0.000000 -0.017996 -0.005972 0.000000 -0.012004 -0.006000 0.000000 -0.012004 -0.005999 0.000000 -0.017996 -0.005991 0.000000 -0.018000 0.000000 0.000000 -0.006000 0.000000 0.000000 -0.018000 0.000034 0.000000 -0.006000 0.006000 0.000000 -0.006000 0.006000 0.000000 -0.006000 0.006000 0.000000 -0.006000 0.006000 0.000000 -0.006000 0.006000 0.000000 -0.006000 0.006000 0.000000 -0.006000 0.006000 0.000000 -0.018000 0.006000 0.000000 -0.018000 0.009000 0.000000 -0.006000 -0.033000 0.000000 -0.006000 -0.018000 0.000000 -0.006000 -0.018000 0.000000 -0.006000 -0.018071 0.000000 -0.006000 -0.012028 0.000000 -0.012001 -0.012001 0.000000 -0.012000 -0.012001 0.000000 -0.018000 -0.012042 0.000000 -0.018000 -0.012044 0.000000 -0.006000 -0.006000 0.000000 -0.018000 -0.000078 0.000000 -0.006000 -0.000000 0.000000 -0.006000 0.006000 0.000000 -0.006000 0.006000 0.000000 -0.006000 0.006000 0.000000 -0.006000 0.006000 0.000000 -0.006000 0.006000 0.000000 -0.006000 0.006000 0.000000 -0.018000 0.006000 0.000000 -0.018000 0.009000 0.000000 -0.006000 -0.015000 0.000000 -0.006000 -0.012000 0.000000 -0.006000 -0.012000 0.000000 -0.006000 -0.005929 0.000000 -0.005995 -0.005972 0.000000 -0.012005 -0.006000 0.000000 -0.012000 0.000001 0.000000 -0.006000 0.000051 0.000000 -0.012001 -0.005909 0.000000 -0.005999 0.000000 0.000000 -0.018001 0.006043 0.000000 -0.006000 0.006000 0.000000 -0.006000 0.006000 0.000000 -0.006000 0.006000 0.000000 -0.006000 0.006000 0.000000 -0.006000 0.006000 0.000000 -0.006000 0.006000 0.000000 -0.006000 0.006000 0.000000 -0.018000 0.006000 0.000000 -0.012000 0.009000 0.000000 -0.006000 -0.009000 0.000000 -0.006000 -0.012000 0.000000 -0.006000 -0.006000 0.000000 -0.006000 -0.006000 0.000000 -0.006000 -0.006000 0.000000 -0.006000 -0.006000 0.000000 -0.006000 -0.006000 0.000000 -0.006000 -0.006017 0.000000 -0.012000 -0.000048 0.000000 -0.006000 -0.000000 0.000000 -0.012000 -0.000000 0.000000 -0.006000 0.006000 0.000000 -0.006000 0.006000 0.000000 -0.006000 0.006000 0.000000 -0.006000 0.006000 0.000000 -0.006000 0.006000 0.000000 -0.006000 0.006000 0.000000 -0.006000 0.006000 0.000000 -0.018000 0.006000 0.000000 -0.012000 0.009000 0.000000 -0.006000 -0.009000 0.000000 -0.006000 -0.006000 0.000000 -0.006000 -0.006000 0.000000 -0.006000 -0.006000 0.000000 -0.006000 -0.006000 0.000000 -0.006000 -0.006000 0.000000 -0.006000 -0.006000 0.000000 -0.006000 -0.006000 0.000000 -0.012000 -0.006000 0.000000 -0.006000 0.000000 0.000000 -0.012000 0.000000 0.000000 -0.006000 0.006000 0.000000 -0.006000 0.006000 0.000000 -0.006000 0.006000 0.000000 -0.006000 0.006000 0.000000 -0.006000 0.006000 0.000000 -0.006000 0.006000 0.000000 -0.006000 0.006000 0.000000 -0.018000 0.006000 0.000000 -0.012000 0.009000 0.000000 -0.006000 -0.009000 0.000000 -0.006000 -0.006000 0.000000 -0.006000 -0.006000 0.000000 -0.006000 -0.006000 0.000000 -0.006000 -0.006000 0.000000 -0.006000 -0.006000 0.000000 -0.006000 -0.006000 0.000000 -0.006000 -0.006000 0.000000 -0.012000 -0.006000 0.000000 -0.006000 0.000000 0.000000 -0.012000 0.000000 0.000000 -0.006000 0.006000 0.000000 -0.006000 0.006000 0.000000 -0.006000 0.006000 0.000000 -0.006000 0.006000 0.000000 -0.006000 0.006000 0.000000 -0.006000 0.006000 0.000000 -0.006000 0.006000 0.000000 -0.018000 0.006000 0.000000 -0.012000 0.009000 0.000000 -0.006000 -0.009000 0.000000 -0.006000 -0.006000 0.000000 -0.006000 -0.006000 0.000000 -0.006000 -0.006000 0.000000 -0.006000 -0.006000 0.000000 -0.006000 -0.006000 0.000000 -0.006000 -0.006000 0.000000 -0.006000 -0.006000 0.000000 -0.006000 -0.006000 0.000000 -0.006000 -0.000000 0.000000 -0.012000 0.000000 0.000000 -0.006000 0.006000 0.000000 -0.006000 0.006000 0.000000 -0.006000 0.006000 0.000000 -0.006000 0.006000 0.000000 -0.006000 0.006000 0.000000 -0.006000 0.006000 0.000000 -0.006000 0.006000 0.000000 -0.012000 0.006000 0.000000 -0.012000 0.009000 0.000000 -0.006000 -0.009000 0.000000 -0.006000 -0.006000 0.000000 -0.006000 -0.006000 0.000000 -0.006000 -0.006000 0.000000 -0.006000 -0.006000 0.000000 -0.006000 -0.006000 0.000000 -0.006000 -0.006000 0.000000 -0.006000 -0.006000 0.000000 -0.006000 -0.006000 0.000000 -0.006000 0.000000 0.000000 -0.012000 0.000000 0.000000 -0.006000 0.006000 0.000000 -0.006000 0.006000 0.000000 -0.006000 0.006000 0.000000 -0.006000 0.006000 0.000000 -0.006000 0.006000 0.000000 -0.006000 0.006000 0.000000 -0.006000 0.006000 0.000000 -0.012000 0.006000 0.000000 -0.012000 0.009000 0.000000 -0.006000 -0.009000 0.000000 -0.006000 -0.006000 0.000000 -0.006000 -0.006000 0.000000 -0.006000 -0.006000 0.000000 -0.006000 -0.006000 0.000000 -0.006000 -0.006000 0.000000 -0.006000 -0.006000 0.000000 -0.006000 -0.006000 0.000000 -0.006000 -0.006000 0.000000 -0.006000 0.000000 0.000000 -0.012000 0.000000 0.000000 -0.006000 0.006000 0.000000 -0.006000 0.006000 0.000000 -0.006000 0.006000 0.000000 -0.006000 0.006000 0.000000 -0.006000 0.006000 0.000000 -0.006000 0.006000 0.000000 -0.006000 0.006000 0.000000 -0.012000 0.006000 0.000000 -0.012000 0.009000 0.000000 -0.006000 -0.009000 0.000000 -0.006000 -0.006000 0.000000 -0.006000 -0.006000 0.000000 -0.006000 -0.006000 0.000000 -0.006000 -0.006000 0.000000 -0.006000 -0.006000 0.000000 -0.006000 -0.006000 0.000000 -0.006000 -0.006000 0.000000 -0.006000 -0.006000 0.000000 -0.006000 0.000000 0.000000 -0.006000 0.000000 0.000000 -0.006000 0.006000 0.000000 -0.006000 0.006000 0.000000 -0.006000 0.006000 0.000000 -0.006000 0.006000 0.000000 -0.006000 0.006000 0.000000 -0.006000 0.006000 0.000000 -0.006000 0.006000 0.000000 -0.012000 0.006000 0.000000 -0.012000 0.009000 0.000000 -0.006000 -0.009000 0.000000 -0.006000 -0.006000 0.000000 -0.006000 -0.006000 0.000000 -0.006000 -0.006000 0.000000 -0.006000 -0.006000 0.000000 -0.006000 -0.006000 0.000000 -0.006000 -0.006000 0.000000 -0.006000 -0.006000 0.000000 -0.006000 -0.006000 0.000000 -0.006000 0.000000 0.000000 -0.006000 0.000000 0.000000 -0.006000 0.006000 0.000000 -0.006000 0.006000 0.000000 -0.006000 0.006000 0.000000 -0.006000 0.006000 0.000000 -0.006000 0.006000 0.000000 -0.006000 0.006000 0.000000 -0.006000 0.006000 0.000000 -0.012000 0.006000 0.000000 -0.006000 0.009000 0.000000 -0.006000 -0.009000 0.000000 -0.006000 -0.006000 0.000000 -0.006000 -0.006000 0.000000 -0.006000 -0.006000 0.000000 -0.006000 -0.006000 0.000000 -0.006000 -0.006000 0.000000 -0.006000 -0.006000 0.000000 -0.006000 -0.006000 0.000000 -0.006000 -0.006000 0.000000 -0.006000 0.000000 0.000000 -0.006000 0.000000 0.000000 -0.006000 0.006000 0.000000 -0.006000 0.006000 0.000000 -0.006000 0.006000 0.000000 -0.006000 0.006000 0.000000 -0.006000 0.006000 0.000000 -0.006000 0.006000 0.000000 -0.006000 0.006000 0.000000 -0.012000 0.006000 0.000000 -0.006000 0.009000 0.000000 -0.006000 -0.009000 0.000000 -0.006000 -0.006000 0.000000 -0.006000 -0.006000 0.000000 -0.006000 -0.006000 0.000000 -0.006000 -0.006000 0.000000 -0.006000 -0.006000 0.000000 -0.006000 -0.006000 0.000000 -0.006000 -0.006000 0.000000 -0.006000 -0.006000 0.000000 -0.006000 0.000000 0.000000 -0.006000 0.000000 0.000000 -0.012000 0.006000 0.000000 -0.006000 0.006000 0.000000 -0.006000 0.006000 0.000000 -0.006000 0.006000 0.000000 -0.006000 0.006000 0.000000 -0.006000 0.006000 0.000000 -0.006000 0.006000 0.000000 -0.012000 0.006000 0.000000 -0.006000 0.009000 0.000000 -0.006000 -0.009000 0.000000 -0.006000 -0.006000 0.000000 -0.006000 -0.006000 0.000000 -0.006000 -0.006000 0.000000 -0.006000 -0.006000 0.000000 -0.006000 -0.006000 0.000000 -0.006000 -0.006000 0.000000 -0.006000 -0.006000 0.000000 -0.006000 -0.006000 0.000000 -0.006000 0.000000 0.000000 -0.006000 0.000000 0.000000 -0.006000 0.006000 0.000000 -0.006000 0.006000 0.000000 -0.006000 0.006000 0.000000 -0.006000 0.006000 0.000000 -0.006000 0.006000 0.000000 -0.006000 0.006000 0.000000 -0.006000 0.006000 0.000000 -0.012000 0.006000 0.000000 -0.006000 0.009000 0.000000 -0.006000 -0.009000 0.000000 -0.006000 -0.006000 0.000000 -0.006000 -0.006000 0.000000 -0.006000 -0.006000 0.000000 -0.006000 -0.006000 0.000000 -0.006000 -0.006000 0.000000 -0.006000 -0.006000 0.000000 -0.006000 -0.006000 0.000000 -0.006000 -0.006000 0.000000 -0.006000 0.000000 0.000000 -0.006000 0.000000 0.000000 -0.006000 0.006000 0.000000 -0.006000 0.006000 0.000000 -0.006000 0.006000 0.000000 -0.006000 0.006000 0.000000 -0.006000 0.006000 0.000000 -0.006000 0.006000 0.000000 -0.006000 0.006000 0.000000 -0.006000 0.006000 0.000000 -0.006000 0.009000 0.000000 -0.006000 -0.009000 0.000000 -0.006000 -0.006000 0.000000 -0.006000 -0.006000 0.000000 -0.006000 -0.006000 0.000000 -0.006000 -0.006000 0.000000 -0.006000 -0.006000 0.000000 -0.006000 -0.006000 0.000000 -0.006000 -0.006000 0.000000 -0.006000 -0.006000 0.000000 -0.006000 0.000000 0.000000 -0.006000 0.000000 0.000000 -0.006000 0.006000 0.000000 -0.006000 0.006000 0.000000 -0.006000 0.006000 0.000000 -0.006000 0.006000 0.000000 -0.006000 0.006000 0.000000 -0.006000 0.006000 0.000000 -0.006000 0.006000 0.000000 -0.006000 0.006000 0.000000 -0.006000 0.009000 0.000000 -0.006000 -0.009000 0.000000 -0.006000 -0.006000 0.000000 -0.006000 -0.006000 0.000000 -0.006000 -0.006000 0.000000 -0.006000 -0.006000 0.000000 -0.006000 -0.006000 0.000000 -0.006000 -0.006000 0.000000 -0.006000 -0.006000 0.000000 -0.006000 -0.006000 0.000000 -0.006000 0.000000 0.000000 -0.006000 0.000000 0.000000 -0.006000 0.006000 0.000000 -0.006000 0.006000 0.000000 -0.006000 0.006000 0.000000 -0.006000 0.006000 0.000000 -0.006000 0.006000 0.000000 -0.006000 0.006000 0.000000 -0.006000 0.006000 0.000000 -0.006000 0.006000 0.000000 -0.006000 0.009000 0.000000 -0.006000 -0.009000 0.000000 -0.006000 -0.006000 0.000000 -0.006000 -0.006000 0.000000 -0.006000 -0.006000 0.000000 -0.006000 -0.006000 0.000000 -0.006000 -0.006000 0.000000 -0.006000 -0.006000 0.000000 -0.006000 -0.006000 0.000000 -0.006000 -0.006000 0.000000 -0.006000 0.000000 0.000000 -0.006000 0.000000 0.000000 -0.006000 0.006000 0.000000 -0.006000 0.006000 0.000000 -0.006000 0.006000 0.000000 -0.006000 0.006000 0.000000 -0.006000 0.006000 0.000000 -0.006000 0.006000 0.000000 -0.006000 0.006000 0.000000 -0.006000 0.006000 0.000000 -0.006000 0.009000 0.000000 -0.006000 -0.009000 0.000000 -0.006000 -0.006000 0.000000 -0.006000 -0.006000 0.000000 -0.006000 -0.006000 0.000000 -0.006000 -0.006000 0.000000 -0.006000 -0.006000 0.000000 -0.006000 -0.006000 0.000000 -0.006000 -0.006000 0.000000 -0.006000 -0.006000 0.000000 -0.006000 0.000000 0.000000 -0.006000 0.000000 0.000000 -0.006000 0.006000 0.000000 -0.006000 0.006000 0.000000 -0.006000 0.006000 0.000000 -0.006000 0.006000 0.000000 -0.006000 0.006000 0.000000 -0.006000 0.006000 0.000000 -0.006000 0.006000 0.000000 0.006000 0.006000 0.000000 -0.006000 0.009000 0.000000 -0.006000 -0.009000 0.000000 -0.006000 -0.006000 0.000000 -0.006000 -0.006000 0.000000 -0.006000 -0.006000 0.000000 -0.006000 -0.006000 0.000000 -0.006000 -0.006000 0.000000 -0.006000 -0.006000 0.000000 -0.006000 -0.006000 0.000000 -0.006000 -0.006000 0.000000 -0.006000 0.000000 0.000000 -0.006000 0.000000 0.000000 -0.006000 0.006000 0.000000 -0.006000 0.006000 0.000000 -0.006000 0.006000 0.000000 -0.006000 0.006000 0.000000 -0.006000 0.006000 0.000000 -0.006000 0.006000 0.000000 -0.006000 0.006000 0.000000 0.000000 0.006000 0.000000 -0.006000 0.009000 0.000000 -0.006000 -0.009000 0.000000 -0.006000 -0.006000 0.000000 -0.006000 -0.006000 0.000000 -0.006000 -0.006000 0.000000 -0.006000 -0.006000 0.000000 -0.006000 -0.006000 0.000000 -0.006000 -0.006000 0.000000 -0.006000 -0.006000 0.000000 -0.006000 -0.006000 0.000000 -0.006000 0.000000 0.000000 -0.006000 0.000000 0.000000 -0.006000 0.006000 0.000000 -0.006000 0.006000 0.000000 -0.006000 0.006000 0.000000 -0.006000 0.006000 0.000000 -0.006000 0.006000 0.000000 -0.006000 0.006000 0.000000 -0.006000 0.006000 0.000000 -0.000000 0.006000 0.000000 -0.006000 0.009000 0.000000 -0.006000 -0.009000 0.000000 -0.006000 -0.006000 0.000000 -0.006000 -0.006000 0.000000 -0.006000 -0.006000 0.000000 -0.006000 -0.006000 0.000000 -0.006000 -0.006000 0.000000 -0.006000 -0.006000 0.000000 -0.006000 -0.006000 0.000000 -0.006000 -0.006000 0.000000 -0.006000 0.000000 0.000000 -0.006000 0.000000 0.000000 -0.006000 0.006000 0.000000 -0.006000 0.006000 0.000000 -0.006000 0.006000 0.000000 -0.006000 0.006000 0.000000 -0.006000 0.006000 0.000000 -0.006000 0.006000 0.000000 -0.006000 0.006000 0.000000 0.000000 0.006000 0.000000 -0.006000 0.009000 0.000000 -0.006000 -0.009000 0.000000 -0.006000 -0.006000 0.000000 -0.006000 -0.006000 0.000000 -0.006000 -0.006000 0.000000 -0.006000 -0.006000 0.000000 -0.006000 -0.006000 0.000000 -0.006000 -0.006000 0.000000 -0.006000 -0.006000 0.000000 -0.006000 -0.006000 0.000000 -0.006000 0.000000 0.000000 -0.006000 0.000000 0.000000 -0.006000 0.006000 0.000000 -0.006000 0.006000 0.000000 -0.006000 0.006000 0.000000 -0.006000 0.006000 0.000000 -0.006000 0.006000 0.000000 -0.006000 0.006000 0.000000 -0.006000 0.006000 0.000000 0.000000 0.006000 0.000000 0.000000 0.009000 0.000000 -0.006000 -0.009000 0.000000 -0.006000 -0.006000 0.000000 -0.006000 -0.006000 0.000000 -0.006000 -0.006000 0.000000 -0.006000 -0.006000 0.000000 -0.006000 -0.006000 0.000000 -0.006000 -0.006000 0.000000 -0.006000 -0.006000 0.000000 -0.006000 -0.006000 0.000000 -0.006000 0.000000 0.000000 -0.000000 0.000000 0.000000 -0.006000 0.006000 0.000000 -0.006000 0.006000 0.000000 -0.006000 0.006000 0.000000 -0.006000 0.006000 0.000000 -0.006000 0.006000 0.000000 -0.006000 0.006000 0.000000 -0.006000 0.006000 0.000000 0.000000 0.006000 0.000000 -0.000000 0.009000 0.000000 -0.006000 -0.009000 0.000000 -0.006000 -0.006000 0.000000 -0.006000 -0.006000 0.000000 -0.006000 -0.006000 0.000000 -0.006000 -0.006000 0.000000 -0.006000 -0.006000 0.000000 -0.006000 -0.006000 0.000000 -0.006000 -0.006000 0.000000 -0.006000 -0.006000 0.000000 -0.006000 0.000000 0.000000 -0.000000 -0.000000 0.000000 -0.006000 0.006000 0.000000 -0.006000 0.006000 0.000000 -0.006000 0.006000 0.000000 -0.006000 0.006000 0.000000 -0.006000 0.006000 0.000000 -0.006000 0.006000 0.000000 -0.006000 0.006000 0.000000 0.006000 0.006000 0.000000 -0.000000 0.009000 0.000000 -0.006000 -0.009000 0.000000 -0.006000 -0.006000 0.000000 -0.006000 -0.006000 0.000000 -0.006000 -0.005969 0.000000 -0.006000 -0.005980 0.000000 -0.006000 -0.006000 0.000000 -0.006000 -0.006000 0.000000 -0.006000 -0.005993 0.000000 -0.000000 -0.005978 0.000000 -0.006000 0.000000 0.000000 0.000000 0.000117 0.000000 -0.006000 0.006027 0.000000 -0.006000 0.006000 0.000000 -0.006000 0.006000 0.000000 -0.006000 0.006000 0.000000 -0.006000 0.006000 0.000000 -0.006000 0.006000 0.000000 -0.006000 0.006000 0.000000 0.012001 0.006295 0.000000 0.000000 0.009155 0.000000 -0.006000 -0.267003 0.000000 -0.006000 -0.264002 0.000000 -0.006000 -0.251997 0.000000 -0.006001 -0.216036 0.000000 -0.006002 -0.222017 0.000000 -0.005997 -0.198004 0.000000 -0.005997 -0.294013 0.000000 -0.006041 -0.204011 0.000000 0.000084 -0.249644 0.000000 -0.006127 -0.320405 0.000000 0.000181 -0.249254 0.000000 -0.006100 -0.153284 0.000000 -0.005999 -0.236653 0.000000 -0.006000 -0.138587 0.000000 -0.006000 -0.161693 0.000000 -0.006000 -0.192149 0.000000 -0.006000 -0.221896 0.000000 -0.006061 -0.256650 0.000000 -0.000893 -6.568896 0.000000 0.001983 -3.319159 0.000000 -0.006000 -0.273003 0.000000 -0.006000 -0.228001 0.000000 -0.006000 -0.240000 0.000000 -0.006001 -0.240001 0.000000 -0.006002 -0.251996 0.000000 -0.005997 -0.240002 0.000000 -0.005998 -0.231014 0.000000 -0.006047 -0.212988 0.000000 0.000090 -0.186610 0.000000 -0.006126 -0.272458 0.000000 0.000183 -0.312075 0.000000 -0.006102 -0.183279 0.000000 -0.006000 -0.224652 0.000000 -0.006000 -0.138573 0.000000 -0.006000 -0.161697 0.000000 -0.006000 -0.192146 0.000000 -0.006000 -0.221899 0.000000 -0.006063 -0.256803 0.000000 -0.001252 -6.606471 0.000000 0.003058 -3.427231 0.000000 -0.006000 -0.279003 0.000000 -0.006000 -0.246001 0.000000 -0.006001 -0.254999 0.000000 -0.000005 -0.237004 0.000000 0.000012 -0.215998 0.000000 -0.006006 -0.258002 0.000000 -0.006021 -0.186004 0.000000 0.000002 -0.198006 0.000000 0.000068 -0.237606 0.000000 -0.006134 -0.287457 0.000000 0.000185 -0.261067 0.000000 -0.006101 -0.252301 0.000000 -0.006000 -0.188645 0.000000 -0.006000 -0.138575 0.000000 -0.006000 -0.161696 0.000000 -0.006000 -0.192147 0.000000 -0.006000 -0.221898 0.000000 -0.006070 -0.255973 0.000000 -0.001240 -6.424984 0.000000 0.002954 -3.390524 0.000000 -0.006000 -0.255005 0.000000 -0.006000 -0.245997 0.000000 -0.006006 -0.239999 0.000000 0.000006 -0.255000 0.000000 -0.000869 -0.243001 0.000000 -0.005082 -0.204005 0.000000 -0.004954 -0.228005 0.000000 -0.001105 -0.258003 0.000000 0.000063 -0.186612 0.000000 -0.006172 -0.344451 0.000000 0.000259 -0.258073 0.000000 -0.006140 -0.225296 0.000000 -0.005999 -0.152640 0.000000 -0.006000 -0.138572 0.000000 -0.006000 -0.161697 0.000000 -0.006000 -0.192146 0.000000 -0.006000 -0.221899 0.000000 -0.006082 -0.256803 0.000000 -0.007208 -6.606478 0.000000 0.002988 -3.427067 0.000000 -0.006000 -0.255005 0.000000 -0.006000 -0.245997 0.000000 -0.006008 -0.239999 0.000000 -0.000000 -0.255000 0.000000 -0.000854 -0.243001 0.000000 0.000911 -0.204005 0.000000 0.001050 -0.228005 0.000000 -0.001117 -0.258003 0.000000 0.000082 -0.186612 0.000000 -0.006207 -0.344451 0.000000 0.000311 -0.258073 0.000000 -0.006169 -0.225296 0.000000 -0.005999 -0.152640 0.000000 -0.006000 -0.138572 0.000000 -0.006000 -0.161697 0.000000 -0.006000 -0.192146 0.000000 -0.006000 -0.221899 0.000000 -0.006084 -0.256