<VTKFile type="UnstructuredGrid" version="0.1" byte_order="LittleEndian">
  <UnstructuredGrid>
    <Piece NumberOfPoints="2000" NumberOfCells="0">
      <Points>
        <DataArray name="Position" type="Float32" NumberOfComponents="3" format="ascii">
-0.008341 -0.005008 0.000000 -0.009091 0.996662 0.000000 -0.008341 1.996662 0.000000 -0.013718 2.996662 0.000000 -0.025987 3.996662 0.000000 -0.011646 4.996663 0.000000 -0.041432 5.996663 0.000000 -0.011667 6.996663 0.000000 -0.050729 7.996664 0.000000 -0.011666 9.000000 0.000000 -0.008881 10.000001 0.000000 -0.066063 11.003336 0.000000 -0.008329 12.003337 0.000000 -0.008329 13.003337 0.000000 -0.057785 14.003337 0.000000 -0.008323 15.003337 0.000000 -0.008323 16.003338 0.000000 -0.121604 17.003338 0.000000 -0.037936 18.003338 0.000000 -0.164961 19.005008 0.000000 0.994288 -0.005008 0.000000 0.991078 0.996538 0.000000 0.991729 1.996662 0.000000 0.987116 2.996717 0.000000 0.974294 3.996733 0.000000 0.990029 4.996663 0.000000 0.961259 5.996663 0.000000 0.991447 6.996663 0.000000 0.950456 7.996656 0.000000 0.991698 9.000000 0.000000 0.991421 10.000001 0.000000 0.935217 11.003336 0.000000 0.993710 12.003337 0.000000 0.995010 13.003337 0.000000 0.942447 14.003337 0.000000 0.995362 15.003337 0.000000 0.994756 16.003338 0.000000 0.878656 17.003338 0.000000 0.962572 18.003338 0.000000 0.835750 19.005007 0.000000 1.994483 -0.005008 0.000000 1.991212 0.996036 0.000000 1.995153 1.996662 0.000000 1.987199 2.996660 0.000000 1.978922 3.996663 0.000000 1.991898 4.996662 0.000000 1.963069 5.996657 0.000000 1.991477 6.996663 0.000000 1.950494 7.997196 0.000000 1.991719 9.000000 0.000000 1.991425 10.000001 0.000000 1.935383 11.003349 0.000000 1.993732 12.003337 0.000000 1.995031 13.003337 0.000000 1.942535 14.003336 0.000000 1.995397 15.003337 0.000000 1.994782 16.003338 0.000000 1.878705 17.003338 0.000000 1.962962 18.003340 0.000000 1.836072 19.005021 0.000000 2.994496 -0.004998 0.000000 2.991322 0.995065 0.000000 2.995876 1.995516 0.000000 2.987213 2.996169 0.000000 2.980330 3.996453 0.000000 2.991909 4.996905 0.000000 2.963070 5.996968 0.000000 2.993329 6.997813 0.000000 2.950538 7.998211 0.000000 2.991923 9.000000 0.000000 2.991445 10.000001 0.000000 2.935833 11.002973 0.000000 2.993733 12.003338 0.000000 2.995035 13.003347 0.000000 2.942643 14.003352 0.000000 2.995616 15.003338 0.000000 2.994782 16.004058 0.000000 2.879006 17.003338 0.000000 2.963092 18.003229 0.000000 2.836079 19.004661 0.000000 3.994707 -0.006646 0.000000 3.991325 0.994386 0.000000 3.995882 1.994406 0.000000 3.987362 2.994520 0.000000 3.980503 3.995995 0.000000 3.993317 4.998869 0.000000 3.963094 5.999166 0.000000 3.993340 6.999815 0.000000 3.950750 8.000285 0.000000 3.993329 9.000010 0.000000 3.991446 10.000016 0.000000 3.935900 11.000814 0.000000 3.995185 12.003337 0.000000 3.995835 13.003337 0.000000 3.942648 14.003336 0.000000 3.995998 15.003338 0.000000 3.995708 16.003338 0.000000 3.879067 17.003340 0.000000 3.963253 18.004486 0.000000 3.836067 19.007323 0.000000 4.994656 -0.018370 0.000000 4.991354 0.985884 0.000000 4.996650 1.989957 0.000000 4.987364 2.991123 0.000000 4.981686 3.992450 0.000000 4.993306 4.992530 0.000000 4.963051 5.992127 0.000000 4.993455 6.992347 0.000000 4.950804 7.991850 0.000000 4.993331 8.996641 0.000000 4.991463 9.999220 0.000000 4.936124 10.998951 0.000000 4.995185 12.003337 0.000000 4.995835 13.003337 0.000000 4.942955 14.003337 0.000000 4.996008 15.003337 0.000000 4.995708 16.003338 0.000000 4.879087 17.003337 0.000000 4.963263 18.003018 0.000000 4.836160 19.004159 0.000000 5.994631 -0.008240 0.000000 5.991352 0.993543 0.000000 5.996665 1.994144 0.000000 5.987612 2.994528 0.000000 5.982669 3.997078 0.000000 5.993375 4.997490 0.000000 5.962962 5.999390 0.000000 5.993853 6.999677 0.000000 5.950832 8.000908 0.000000 5.993335 9.000635 0.000000 5.991945 10.000982 0.000000 5.936209 11.002998 0.000000 5.995193 12.003337 0.000000 5.995843 13.003337 0.000000 5.943913 14.003334 0.000000 5.996011 15.003338 0.000000 5.995719 16.003338 0.000000 5.879090 17.003340 0.000000 5.963548 18.004698 0.000000 5.836321 19.007256 0.000000 6.994831 -0.006782 0.000000 6.991554 0.994175 0.000000 6.996665 1.995052 0.000000 6.987920 2.995599 0.000000 6.982848 3.995721 0.000000 6.994749 4.997718 0.000000 6.963057 5.998415 0.000000 6.995860 6.999124 0.000000 6.950853 7.999401 0.000000 6.996653 8.999999 0.000000 6.994028 10.000001 0.000000 6.936333 11.002872 0.000000 6.995206 12.003337 0.000000 6.995857 13.003356 0.000000 6.943960 14.003372 0.000000 6.996025 15.003338 0.000000 6.995728 16.003993 0.000000 6.879156 17.003337 0.000000 6.963635 18.003125 0.000000 6.836343 19.004531 0.000000 7.994839 -0.004983 0.000000 7.991566 0.995405 0.000000 7.996665 1.996135 0.000000 7.988165 2.996317 0.000000 7.983021 3.996498 0.000000 7.995072 4.996912 0.000000 7.963196 5.996778 0.000000 7.996180 6.997175 0.000000 7.950889 7.997761 0.000000 7.996659 8.999999 0.000000 7.994036 10.000001 0.000000 7.936356 11.003366 0.000000 7.996651 12.003337 0.000000 7.996651 13.003337 0.000000 7.944012 14.003333 0.000000 7.996448 15.003337 0.000000 7.996648 16.003338 0.000000 7.879153 17.003338 0.000000 7.963619 18.003344 0.000000 7.836254 19.005045 0.000000 8.995077 -0.005008 0.000000 8.991570 0.996347 0.000000 8.996666 1.996663 0.000000 8.988186 2.996673 0.000000 8.983071 3.996668 0.000000 8.996653 4.997011 0.000000 8.963349 5.996663 0.000000 8.996300 6.996663 0.000000 8.950832 7.996374 0.000000 8.996660 9.000000 0.000000 8.994041 10.000001 0.000000 8.936548 11.003336 0.000000 8.996662 12.003337 0.000000 8.996660 13.003337 0.000000 8.944258 14.003337 0.000000 8.996648 15.003337 0.000000 8.996660 16.003338 0.000000 8.879156 17.003338 0.000000 8.963822 18.003338 0.000000 8.836394 19.005006 0.000000 9.995302 -0.005008 0.000000 9.991574 0.996664 0.000000 9.996666 1.996662 0.000000 9.988316 2.996662 0.000000 9.983249 3.996662 0.000000 9.996660 4.996663 0.000000 9.963435 5.996663 0.000000 9.996651 6.996663 0.000000 9.950886 7.996671 0.000000 9.996660 9.000000 0.000000 9.994043 10.000001 0.000000 9.936766 11.003336 0.000000 9.996662 12.003337 0.000000 9.996662 13.003337 0.000000 9.944493 14.003337 0.000000 9.996660 15.003337 0.000000 9.996662 16.003338 0.000000 9.879152 17.003338 0.000000 9.963844 18.003338 0.000000 9.836653 19.005008 0.000000 10.995332 -0.005008 0.000000 10.991812 0.996662 0.000000 10.996666 1.996662 0.000000 10.988753 2.996662 0.000000 10.983724 3.996663 0.000000 10.996668 4.996663 0.000000 10.963435 5.996663 0.000000 10.996668 6.996663 0.000000 10.950946 7.996664 0.000000 10.996666 9.000000 0.000000 10.994043 10.000001 0.000000 10.936870 11.003336 0.000000 10.996663 12.003337 0.000000 10.996663 13.003337 0.000000 10.945136 14.003337 0.000000 10.996663 15.003337 0.000000 10.996663 16.003338 0.000000 10.879174 17.003338 0.000000 10.963791 18.003338 0.000000 10.836668 19.005008 0.000000 11.995334 -0.005008 0.000000 11.992042 0.996662 0.000000 11.996666 1.996662 0.000000 11.988833 2.996662 0.000000 11.983822 3.996662 0.000000 11.996668 4.996663 0.000000 11.963462 5.996663 0.000000 11.996668 6.996663 0.000000 11.950920 7.996664 0.000000 11.996666 9.000000 0.000000 11.994045 10.000001 0.000000 11.936933 11.003336 0.000000 11.996663 12.003337 0.000000 11.996663 13.003337 0.000000 11.945753 14.003337 0.000000 11.996663 15.003337 0.000000 11.996663 16.003338 0.000000 11.879180 17.003338 0.000000 11.963467 18.003338 0.000000 11.836679 19.005008 0.000000 12.995550 -0.005008 0.000000 12.992326 0.996662 0.000000 12.996667 1.996662 0.000000 12.988895 2.996662 0.000000 12.983899 3.996663 0.000000 12.996668 4.996663 0.000000 12.963410 5.996663 0.000000 12.996668 6.996663 0.000000 12.950972 7.996664 0.000000 12.996667 9.000000 0.000000 12.996649 10.000001 0.000000 12.937028 11.003336 0.000000 12.996663 12.003337 0.000000 12.996663 13.003337 0.000000 12.946247 14.003337 0.000000 12.996663 15.003337 0.000000 12.996663 16.003338 0.000000 12.879189 17.003338 0.000000 12.963088 18.003338 0.000000 12.836811 19.005008 0.000000 13.995551 -0.005008 0.000000 13.992562 0.996662 0.000000 13.996667 1.996662 0.000000 13.988902 2.996662 0.000000 13.984180 3.996663 0.000000 13.996668 4.996663 0.000000 13.963356 5.996663 0.000000 13.996668 6.996663 0.000000 13.951047 7.996664 0.000000 13.996667 9.000000 0.000000 13.996659 10.000001 0.000000 13.937335 11.003336 0.000000 13.996663 12.003337 0.000000 13.996663 13.003337 0.000000 13.946490 14.003337 0.000000 13.996663 15.003337 0.000000 13.996663 16.003338 0.000000 13.879195 17.003338 0.000000 13.962998 18.003338 0.000000 13.837062 19.005008 0.000000 14.995552 -0.005008 0.000000 14.992581 0.996662 0.000000 14.996667 1.996662 0.000000 14.989116 2.996662 0.000000 14.984609 3.996663 0.000000 14.996669 4.996663 0.000000 14.963405 5.996663 0.000000 14.996669 6.996663 0.000000 14.950949 7.996664 0.000000 14.996667 9.000000 0.000000 14.996659 10.000001 0.000000 14.937597 11.003336 0.000000 14.996667 12.003337 0.000000 14.996667 13.003337 0.000000 14.946753 14.003337 0.000000 14.996664 15.003337 0.000000 14.996664 16.003338 0.000000 14.879157 17.003338 0.000000 14.963228 18.003338 0.000000 14.837159 19.005008 0.000000 15.995561 -0.005008 0.000000 15.992795 0.996662 0.000000 15.996668 1.996662 0.000000 15.989343 2.996662 0.000000 15.984652 3.996663 0.000000 15.996669 4.996663 0.000000 15.963425 5.996663 0.000000 15.996669 6.996663 0.000000 15.951009 7.996664 0.000000 15.996668 9.000000 0.000000 15.996662 10.000001 0.000000 15.937791 11.003336 0.000000 15.996669 12.003337 0.000000 15.996669 13.003337 0.000000 15.947279 14.003337 0.000000 15.996664 15.003337 0.000000 15.996664 16.003338 0.000000 15.879137 17.003338 0.000000 15.963619 18.003338 0.000000 15.837326 19.005008 0.000000 16.995782 -0.005008 0.000000 16.992806 0.996662 0.000000 16.996668 1.996662 0.000000 16.989342 2.996662 0.000000 16.984668 3.996663 0.000000 16.996669 4.996663 0.000000 16.963366 5.996663 0.000000 16.996669 6.996663 0.000000 16.950851 7.996664
[...]
      <PointData Vectors="vector">
        <DataArray type="Float32" Name="Velocity" NumberOfComponents="3" format="ascii">
-0.015000 -0.009000 0.000000 -0.117001 -0.005992 0.000000 -0.015000 -0.006000 0.000000 -0.297007 -0.006006 0.000000 -0.453076 -0.006002 0.000000 -0.021000 -0.006000 0.000000 -0.477059 -0.006000 0.000000 -0.021000 -0.006000 0.000000 -0.543009 -0.006000 0.000000 -0.021000 0.000000 0.000000 -0.021000 0.000000 0.000000 -0.801022 0.006000 0.000000 -0.015000 0.006000 0.000000 -0.015000 0.006000 0.000000 -0.543012 0.006000 0.000000 -0.015000 0.006000 0.000000 -0.015000 0.006000 0.000000 -0.939021 0.006000 0.000000 -0.561004 0.006000 0.000000 -1.179023 0.009000 0.000000 -0.066000 -0.009000 0.000000 -0.125992 -0.011916 0.000000 -0.018004 -0.006000 0.000000 -0.245938 -0.005982 0.000000 -0.396080 0.000002 0.000000 -0.018000 -0.006000 0.000000 -0.420048 -0.005999 0.000000 -0.018000 -0.006000 0.000000 -0.690001 -0.006236 0.000000 -0.018000 0.000000 0.000000 -0.018000 0.000000 0.000000 -0.786002 0.005996 0.000000 -0.018000 0.006000 0.000000 -0.018000 0.006000 0.000000 -0.534013 0.006000 0.000000 -0.018000 0.006000 0.000000 -0.018000 0.006000 0.000000 -1.026005 0.006000 0.000000 -0.612006 0.006000 0.000000 -1.164031 0.008995 0.000000 -0.060000 -0.009000 0.000000 -0.095998 -0.011790 0.000000 -0.017979 -0.005995 0.000000 -0.186042 -0.005752 0.000000 -0.311941 -0.005972 0.000000 -0.017997 -0.006000 0.000000 -0.425987 -0.006101 0.000000 -0.018000 -0.006000 0.000000 -0.612018 -0.001517 0.000000 -0.018000 0.000000 0.000000 -0.018000 0.000000 0.000000 -0.786051 0.006405 0.000000 -0.018000 0.006000 0.000000 -0.018000 0.006000 0.000000 -0.545988 0.005987 0.000000 -0.018000 0.006000 0.000000 -0.018000 0.006000 0.000000 -1.014022 0.006000 0.000000 -0.702007 0.006053 0.000000 -1.176035 0.009296 0.000000 -0.060000 -0.008751 0.000000 -0.108000 -0.011975 0.000000 -0.011971 -0.011985 0.000000 -0.258041 -0.010741 0.000000 -0.252100 -0.011007 0.000000 -0.017983 -0.000009 0.000000 -0.522074 -0.003264 0.000000 -0.011998 -0.000007 0.000000 -0.605996 -0.001221 0.000000 -0.018000 -0.000000 0.000000 -0.018000 -0.000000 0.000000 -0.660005 0.005062 0.000000 -0.017990 0.006000 0.000000 -0.017966 0.006000 0.000000 -0.534064 0.006029 0.000000 -0.017967 0.006000 0.000000 -0.018003 0.012000 0.000000 -1.002005 0.005996 0.000000 -0.666010 0.003479 0.000000 -1.101026 0.004298 0.000000 -0.053987 -0.012912 0.000000 -0.131984 -0.008275 0.000000 -0.011985 -0.011912 0.000000 -0.203994 -0.010467 0.000000 -0.245947 -0.002761 0.000000 -0.012013 0.000042 0.000000 -0.578964 0.003360 0.000000 -0.011909 0.012027 0.000000 -0.588034 0.018366 0.000000 -0.012000 0.000032 0.000000 -0.018000 0.000039 0.000000 -0.648024 -0.001066 0.000000 -0.012000 0.006000 0.000000 -0.012000 0.006000 0.000000 -0.534000 0.005984 0.000000 -0.012000 0.006000 0.000000 -0.012000 0.006000 0.000000 -1.020020 0.006010 0.000000 -0.624016 0.011720 0.000000 -1.293106 0.025917 0.000000 -0.054000 -0.035604 0.000000 -0.090000 -0.034332 0.000000 -0.006000 -0.018105 0.000000 -0.233949 -0.045554 0.000000 -0.215977 -0.023601 0.000000 -0.017593 -0.030091 0.000000 -0.439030 -0.038028 0.000000 -0.009724 -0.036043 0.000000 -0.582047 -0.048231 0.000000 -0.012000 -0.006065 0.000000 -0.018000 -0.000093 0.000000 -0.720199 -0.015328 0.000000 -0.012000 0.006000 0.000000 -0.012000 0.006000 0.000000 -0.510033 0.005999 0.000000 -0.012000 0.006000 0.000000 -0.012000 0.006000 0.000000 -1.055987 0.005986 0.000000 -0.588034 -0.001486 0.000000 -1.122158 -0.004158 0.000000 -0.054014 -0.012687 0.000000 -0.036015 -0.007991 0.000000 -0.006000 -0.011922 0.000000 -0.216085 -0.009860 0.000000 -0.192079 0.002725 0.000000 -0.006012 -0.005929 0.000000 -0.507239 0.004419 0.000000 -0.017822 0.012050 0.000000 -0.618228 0.018781 0.000000 -0.011987 0.006033 0.000000 -0.012003 0.000054 0.000000 -0.606654 0.014374 0.000000 -0.011999 0.006000 0.000000 -0.012000 0.006000 0.000000 -0.497978 0.005947 0.000000 -0.012000 0.006000 0.000000 -0.012000 0.006000 0.000000 -1.110034 0.006017 0.000000 -0.498041 0.014859 0.000000 -1.127940 0.028569 0.000000 -0.047999 -0.015054 0.000000 -0.102000 -0.012400 0.000000 -0.006000 -0.011997 0.000000 -0.185964 -0.011482 0.000000 -0.192011 -0.009539 0.000000 -0.006018 -0.000009 0.000000 -0.450032 0.002217 0.000000 -0.018000 0.000018 0.000000 -0.611882 0.002623 0.000000 -0.006000 -0.000000 0.000000 -0.012000 -0.000000 0.000000 -0.689285 0.001692 0.000000 -0.011973 0.006000 0.000000 -0.011959 0.006000 0.000000 -0.510091 0.006117 0.000000 -0.011955 0.006000 0.000000 -0.012002 0.012000 0.000000 -0.993039 0.005989 0.000000 -0.543119 0.001133 0.000000 -1.167028 0.001174 0.000000 -0.048001 -0.008386 0.000000 -0.102000 -0.011842 0.000000 -0.006000 -0.011980 0.000000 -0.186030 -0.011002 0.000000 -0.180009 -0.010257 0.000000 -0.017901 0.000000 0.000000 -0.534208 -0.004547 0.000000 -0.017968 -0.000031 0.000000 -0.609347 -0.001956 0.000000 -0.006000 0.000000 0.000000 -0.012000 0.000000 0.000000 -0.666198 0.006888 0.000000 -0.006000 0.006000 0.000000 -0.006000 0.006000 0.000000 -0.498010 0.005935 0.000000 -0.006000 0.006000 0.000000 -0.006000 0.006000 0.000000 -1.083023 0.006002 0.000000 -0.614979 0.006247 0.000000 -1.035134 0.009959 0.000000 -0.042000 -0.009000 0.000000 -0.102001 -0.011198 0.000000 -0.005996 -0.006000 0.000000 -0.144013 -0.005590 0.000000 -0.150038 -0.005980 0.000000 -0.005982 -0.000000 0.000000 -0.479863 -0.006054 0.000000 -0.006000 -0.006005 0.000000 -0.584557 -0.011082 0.000000 -0.006000 0.000000 0.000000 -0.012000 0.000000 0.000000 -0.642177 0.005978 0.000000 -0.006000 0.006000 0.000000 -0.006000 0.006000 0.000000 -0.498011 0.006002 0.000000 -0.006000 0.006000 0.000000 -0.006000 0.006000 0.000000 -0.998994 0.006000 0.000000 -0.494561 0.005995 0.000000 -1.098074 0.008948 0.000000 -0.036001 -0.009000 0.000000 -0.101999 -0.005957 0.000000 -0.006000 -0.006000 0.000000 -0.191956 -0.006009 0.000000 -0.221961 -0.006007 0.000000 -0.006000 -0.006000 0.000000 -0.518986 -0.006000 0.000000 -0.006000 -0.006000 0.000000 -0.684011 -0.005759 0.000000 -0.006000 -0.000000 0.000000 -0.012000 0.000000 0.000000 -0.677768 0.006000 0.000000 -0.006000 0.006000 0.000000 -0.006000 0.006000 0.000000 -0.486010 0.006000 0.000000 -0.006000 0.006000 0.000000 -0.006000 0.006000 0.000000 -0.969019 0.006000 0.000000 -0.631713 0.006000 0.000000 -1.037828 0.009002 0.000000 -0.035999 -0.009000 0.000000 -0.096000 -0.006000 0.000000 -0.006000 -0.006000 0.000000 -0.119930 -0.006000 0.000000 -0.216006 -0.006000 0.000000 -0.006000 -0.006000 0.000000 -0.480212 -0.006000 0.000000 -0.006000 -0.006000 0.000000 -0.489325 -0.006011 0.000000 -0.006000 0.000000 0.000000 -0.012000 0.000000 0.000000 -0.617996 0.006000 0.000000 -0.006000 0.006000 0.000000 -0.006000 0.006000 0.000000 -0.473979 0.006000 0.000000 -0.006000 0.006000 0.000000 -0.006000 0.006000 0.000000 -1.026028 0.006000 0.000000 -0.624347 0.006000 0.000000 -1.104091 0.009000 0.000000 -0.036001 -0.009000 0.000000 -0.090000 -0.006000 0.000000 -0.006000 -0.006000 0.000000 -0.096018 -0.006000 0.000000 -0.192000 -0.006000 0.000000 -0.006000 -0.006000 0.000000 -0.531087 -0.006000 0.000000 -0.006000 -0.006000 0.000000 -0.614747 -0.006000 0.000000 -0.006000 0.000000 0.000000 -0.012000 0.000000 0.000000 -0.636500 0.006000 0.000000 -0.006000 0.006000 0.000000 -0.006000 0.006000 0.000000 -0.468015 0.006000 0.000000 -0.006000 0.006000 0.000000 -0.006000 0.006000 0.000000 -1.104034 0.006000 0.000000 -0.653165 0.006000 0.000000 -1.104090 0.009000 0.000000 -0.029999 -0.009000 0.000000 -0.084001 -0.006000 0.000000 -0.006000 -0.006000 0.000000 -0.138009 -0.006000 0.000000 -0.107981 -0.006000 0.000000 -0.006000 -0.006000 0.000000 -0.606267 -0.006000 0.000000 -0.006000 -0.006000 0.000000 -0.582150 -0.006000 0.000000 -0.006000 0.000000 0.000000 -0.006000 0.000000 0.000000 -0.629788 0.006000 0.000000 -0.006000 0.006000 0.000000 -0.006000 0.006000 0.000000 -0.450043 0.006000 0.000000 -0.006000 0.006000 0.000000 -0.006000 0.006000 0.000000 -0.954074 0.006000 0.000000 -0.541406 0.006000 0.000000 -1.002549 0.009000 0.000000 -0.030000 -0.009000 0.000000 -0.077999 -0.006000 0.000000 -0.006000 -0.006000 0.000000 -0.101983 -0.006000 0.000000 -0.161996 -0.006000 0.000000 -0.006000 -0.006000 0.000000 -0.602749 -0.006000 0.000000 -0.006000 -0.006000 0.000000 -0.561005 -0.006000 0.000000 -0.006000 0.000000 0.000000 -0.006000 0.000000 0.000000 -0.587488 0.006000 0.000000 -0.006000 0.006000 0.000000 -0.006000 0.006000 0.000000 -0.443922 0.006000 0.000000 -0.006000 0.006000 0.000000 -0.006000 0.006000 0.000000 -1.070933 0.006000 0.000000 -0.643991 0.006000 0.000000 -1.109895 0.009000 0.000000 -0.030000 -0.009000 0.000000 -0.078000 -0.006000 0.000000 -0.006000 -0.006000 0.000000 -0.107993 -0.006000 0.000000 -0.318006 -0.006000 0.000000 -0.006000 -0.006000 0.000000 -0.593898 -0.006000 0.000000 -0.006000 -0.006000 0.000000 -0.663036 -0.006000 0.000000 -0.006000 0.000000 0.000000 -0.006000 0.000000 0.000000 -0.582047 0.006000 0.000000 -0.006000 0.006000 0.000000 -0.006000 0.006000 0.000000 -0.438007 0.006000 0.000000 -0.006000 0.006000 0.000000 -0.006000 0.006000 0.000000 -1.038112 0.006000 0.000000 -0.564543 0.006000 0.000000 -1.032335 0.009000 0.000000 -0.030000 -0.009000 0.000000 -0.072001 -0.006000 0.000000 -0.006000 -0.006000 0.000000 -0.063007 -0.006000 0.000000 -0.348007 -0.006000 0.000000 -0.006000 -0.006000 0.000000 -0.639100 -0.006000 0.000000 -0.006000 -0.006000 0.000000 -0.579139 -0.006000 0.000000 -0.006000 0.000000 0.000000 -0.006000 0.000000 0.000000 -0.592074 0.006000 0.000000 -0.006000 0.006000 0.000000 -0.006000 0.006000 0.000000 -0.426170 0.006000 0.000000 -0.006000 0.006000 0.000000 -0.006000 0.006000 0.000000 -1.026175 0.006000 0.000000 -0.610948 0.006000 0.000000 -1.067803 0.009000 0.000000 -0.024000 -0.009000 0.000000 -0.071999 -0.006000 0.000000 -0.006000 -0.006000 0.000000 -0.128991 -0.006000 0.000000 -0.219105 -0.006000 0.000000 -0.006000 -0.006000 0.000000 -0.587930 -0.006000 0.000000 -0.006000 -0.006000 0.000000 -0.687229 -0.006000 0.000000 -0.006000 0.000000 0.000000 -0.006000 0.000000 0.000000 -0.734731 0.006000 0.000000 -0.006000 0.006000 0.000000 -0.006000 0.006000 0.000000 -0.425951 0.006000 0.000000 -0.006000 0.006000 0.000000 -0.006000 0.006000 0.000000 -0.993158 0.006000 0.000000 -0.348857 0.006000 0.000000 -1.044063 0.009000 0.000000 -0.024000 -0.009000 0.000000 -0.072001 -0.006000 0.000000 -0.006000 -0.006000 0.000000 -0.102002 -0.006000 0.000000 -0.269963 -0.006000 0.000000 -0.006000 -0.006000 0.000000 -0.510262 -0.006000 0.000000 -0.006000 -0.006000 0.000000 -0.621261 -0.006000 0.000000 -0.006000 0.000000 0.000000 -0.006000 0.000000 0.000000 -0.678003 0.006000 0.000000 -0.006000 0.006000 0.000000 -0.006000 0.006000 0.000000 -0.408018 0.006000 0.000000 -0.006000 0.006000 0.000000 -0.006000 0.006000 0.000000 -0.957060 0.006000 0.000000 -0.336985 0.006000 0.000000 -1.032406 0.009000 0.000000 -0.024000 -0.009000 0.000000 -0.072000 -0.006000 0.000000 -0.006000 -0.006000 0.000000 -0.060012 -0.006000 0.000000 -0.240001 -0.006000 0.000000 -0.006000 -0.006000 0.000000 -0.623856 -0.006000 0.000000 -0.006000 -0.006000 0.000000 -0.621259 -0.006000 0.000000 -0.006000 0.000000 0.000000 -0.006000 0.000000 0.000000 -0.702703 0.006000 0.000000 -0.006000 0.006000 0.000000 -0.006000 0.006000 0.000000 -0.408042 0.006000 0.000000 -0.006000 0.006000 0.000000 -0.006000 0.006000 0.000000 -1.022443 0.006000 0.000000 -0.471306 0.006000 0.000000 -1.042668 0.009000 0.000000 -0.024000 -0.009000 0.000000 -0.072002 -0.006000 0.000000 -0.006000 -0.006000 0.000000 -0.069001 -0.006000 0.000000 -0.372057 -0.006000 0.000000 -0.006000 -0.006000 0.000000 -0.483442 -0.006000 0.000000 -0.006000 -0.006000 0.000000 -0.633860 -0.006000 0.000000 -0.006000 0.000000 0.000000 -0.006000 0.000000 0.000000 -0.563079 0.006000 0.000000 -0.006000 0.006000 0.000000 -0.006000 0.006000 0.000000 -0.402048 0.006000 0.000000 -0.006000 0.006000 0.000000 -0.006000 0.006000 0.000000 -0.986997 0.006000 0.000000 -0.555008 0.006000 0.000000 -0.941981 0.009000 0.000000 -0.024000 -0.009000 0.000000 -0.072002 -0.006000 0.000000 -0.006000 -0.006000 0.000000 -0.003005 -0.006000 0.000000 -0.384192 -0.006000 0.000000 -0.006000 -0.006000 0.000000 -0.561106 -0.006000 0.000000 -0.006000 -0.006000 0.000000 -0.622740 -0.006000 0.000000 -0.006000 0.000000 0.000000 -0.006000 0.000000 0.000000 -0.566028 0.006000 0.000000 -0.006000 0.006000 0.000000 -0.000000 0.006000 0.000000 -0.389972 0.006000 0.000000 -0.006000 0.006000 0.000000 -0.000000 0.006000 0.000000 -1.024242 0.006000 0.000000 -0.448439 0.006000 0.000000 -0.986656 0.009000 0.000000 -0.024000 -0.009000 0.000000 -0.065996 -0.006000 0.000000 -0.006000 -0.006000 0.000000 0.024001 -0.006000 0.000000 -0.323816 -0.006000 0.000000 -0.006000 -0.006000 0.000000 -0.503802 -0.006000 0.000000 -0.006000 -0.006000 0.000000 -0.594721 -0.006000 0.000000 -0.006000 0.000000 0.000000 -0.006000 0.000000 0.000000 -0.407603 0.006000 0.000000 -0.000000 0.006000 0.000000 -0.000000 0.006000 0.000000 -0.384110 0.006000 0.000000 0.000000 0.006000 0.000000 0.000000 0.006000 0.000000 -0.966100 0.006001 0.000000 -0.401736 0.006000 0.000000 -0.912884 0.009001 0.000000 -0.018000 -0.009000 0.000000 -0.048004 -0.006000 0.000000 -0.006000 -0.006000 0.000000 -0.102034 -0.006000 0.000000 -0.385833 -0.006000 0.000000 -0.006000 -0.006000 0.000000 -0.528215 -0.006000 0.000000 -0.006000 -0.006000 0.000000 -0.561149 -0.005997 0.000000 -0.006000 0.000000 0.000000 -0.006000 0.000000 0.000000 -0.372091 0.005991 0.000000 -0.000000 0.006000 0.000000 -0.000000 0.006000 0.000000 -0.378025 0.006000 0.000000 0.000000 0.006000 0.000000 0.000000 0.006000 0.000000 -1.026372 0.005980 0.000000 -0.283629 0.005998 0.000000 -0.942145 0.008960 0.000000 -0.018000 -0.009000 0.000000 -0.048002 -0.006000 0.000000 -0.006000 -0.006000 0.000000 -0.078144 -0.006000 0.000000 -0.163714 -0.006026 0.000000 -0.006000 -0.006000 0.000000 -0.498045 -0.005981 0.000000 -0.006000 -0.006000 0.000000 -0.657801 -0.006082 0.000000 -0.006000 0.000000 0.000000 -0.006000 0.000000 0.000000 -0.216641 0.006176 0.000000 -0.000000 0.006000 0.000000 -0.000000 0.006000 0.000000 -0.510211 0.006000 0.000000 -0.000000 0.006000 0.000000 0.000000 0.006000 0.000000 -0.967002 0.006480 0.000000 0.250733 0.006079 0.000000 -0.893492 0.009787 0.000000 -0.018000 -0.009000 0.000000 -0.030005 -0.011929 0.000000 -0.005962 -0.012000 0.000000 0.065930 -0.006018 0.000000 -0.160380 -0.006223 0.000000 -0.005940 0.006000 0.000000 -0.609952 -0.006970 0.000000 -0.000000 -0.006000 0.000000 -0.773951 -0.005065 0.000000 -0.006000 0.000000 0.000000 -0.006000 0.000000 0.000000 -0.402235 0.003550 0.000000 -0.000000 0.006000 0.000000 -0.000000 0.006000 0.000000 -0.329986 0.005960 0.000000 0.000000 0.006000 0.000000 -0.000000 0.006000 0.000000 -0.972540 -0.003438 0.000000 0.364116 0.004107 0.000000 -0.831508 -0.001154 0.000000 -0.012000 -0.009000 0.000000 -0.030019 -0.017045 0.000000 0.000026 -0.006000 0.000000 0.104838 -0.011103 0.000000 -0.143618 0.001273 0.000000 -0.005868 0.000000 0.000000 -0.544113 0.004447 0.000000 -0.000000 -0.006002 0.000000 -0.607241 -0.005152 0.000000 -0.006000 0.000000 0.000000 -0.006000 0.000000 0.000000 -0.814672 0.027020 0.000000 -0.000000 0.006000 0.000000 -0.000000 0.006000 0.000000 -0.312592 0.007716 0.000000 0.006000 0.005997 0.000000 -0.000000 0.006000 0.000000 -0.032098 0.088917 0.000000 0.323495 0.037696 0.000000 -0.652308 0.085002 0.000000 -0.012006 -0.009062 0.000000 -0.030001 -0.013116 0.000000 0.000023 -0.017999 0.000000 0.107894 -0.011120 0.000000 -0.429822 -0.036419 0.000000 0.001525 -0.053978 0.000000 -0.514881 -0.053527 0.000000 0.001037 -0.036021 0.000000 -0.617580 -0.086895 0.000000 -0.006000 0.000000 0.000000 -0.000000 0.000000 0.000000 -0.758721 -0.103351 0.000000 -0.000001 -0.126002 0.000000 0.017664 -0.173774 0.000000 -0.314471 -0.119362 0.000000 0.020677 -0.150303 0.000000 0.059513 -0.476573 0.000000 1.566510 -0.138740 0.000000 1.081723 0.112286 0.000000 1.121522 0.219752 0.000000 0.043789 0.048334 0.000000 -0.006808 0.041980 0.000000 0.006097 0.065999 0.000000 0.146772 0.184208 0.000000 -0.536389 0.258112 0.000000 0.002778 0.332986 0.000000 -2.059331 0.820153 0.000000 0.017234 0.713795 0.000000 -2.901212 0.796009 0.000000 0.027832 0.593263 0.000000 0.000892 0.408006 0.000000 -0.698810 0.243160 0.000000 0.039876 0.275145 0.000000 0.019978 0.300296 0.000000 -0.282122 0.350417 0.000000 0.018659 0.293811 0.000000 0.078142 0.259115 0.000000 -0.188594 0.557126 0.000000 1.107582 1.418088 0.000000 3.761110 1.422283 0.000000 0.258263 -1.378423 0.000000 0.119668 -1.205934 0.000000 0.000685 -1.236044 0.000000 0.175185 -1.132370 0.000000 -0.507839 -1.470679 0.000000 0.261064 -1.491511 0.000000 -1.081493 -1.430785 0.000000 0.356871 -1.394617 0.000000 -1.106787 -1.895235 0.000000 0.257078 -2.051337 0.000000 0.451003 -2.350850 0.000000 -1.313969 -2.303112 0.000000 0.316734 -2.197269 0.000000 0.192293 -1.805587 0.000000 -0.617501 -1.871985 0.000000 -1.347850 -0.969716 0.000000 0.844646 -1.422666 0.000000 -0.467259 -1.695138 0.000000 0.959929 2.986133 0.000000 2.513862 1.351019 0.000000 -0.010584 -9.711135 0.000000 -0.038460 -9.610739 0.000000 -0.564714 -9.339031 0.000000 0.359513 -5.051934 0.000000 -0.003165 -3.674486 0.000000 -1.558797 -5.252590 0.000000 2.666322 -1.953428 0.000000 -1.321936 -0.489075 0.000000 4.172959 -4.422565 0.000000 -2.503240 -1.539501 0.000000 1.919843 0.313853 0.000000 0.800672 0.028648 0.000000 -2.515898 0.982289 0.000000 2.754832 2.103749 0.000000 0.088531 2.704563 0.000000 -1.858425 4.059282 0.000000 2.142073 1.925918 0.000000 0.435526 0.528061 0.000000 2.769797 -0.439053 0.000000 6.743568 -2.827457 0.000000 -0.015617 -11.463270 0.000000 -0.044273 -11.359107 0.000000 -0.413775 -8.757805 0.000000 0.509113 -5.189660 0.000000 -0.164728 -9.732351 0.000000 -1.121165 -4.035759 0.000000 1.373825 -6.457630 0.000000 4.552985 4.329177 0.000000 1.258216 -3.205950 0.000000 -2.381546 -1.789753 0.000000 0.385036 1.224531 0.000000 4.338734 -2.566520 0.000000 1.771275 1.058291 0.000000 0.647070 2.605303 0.000000 1.896038 -2.537663 0.000000 -3.906018 1.708982 0.000000 2.586933 5.081963 0.000000 2.975157 1.302484 0.000000 0.663770 1.065057 0.000000 2.616321 1.534787 0.000000 -0.019696 -11.205235 0.000000 -0.195384 -11.161859 0.000000 -0.300282 -8.665225 0.000000 0.505812 -4.613554 0.000000 -0.099311 -9.335167 0.000000 -1.052667 -2.866813 0.000000 2.270035 -7.036695 0.000000 -0.466552 -4.677492 0.000000 1.860763 -3.678294 0.000000 -2.912515 -6.013696 0.000000 -1.072307 -2.034170 0.000000 4.175783 -4.268898 0.000000 -1.906899 -6.653200 0.000000 2.451223 -10.760158 0.000000 -3.253079 -6.519780 0.000000 0.249633 -7.306438 0.000000 -2.192999 -8.270716 0.000000 -4.402996 -23.458798 0.000000 -2.377092 -8.552324 0.000000 4.930925 -18.712451 0.000000 -0.014321 -11.235478 0.000000 0.141558 -11.080378 0.000000 -0.421632 -8.934357 0.000000 0.510037 -4.383823 0.000000 0.174462 -9.147865 0.000000 -1.126010 -3.159986 0.000000 1.066724 -5.732746 0.000000 -0.611595 -5.015218 0.000000 2.304937 -4.701639 0.000000 1.335947 -4.856680 0.000000 -0.702316 -3.438176 0.000000 3.285205 -11.071562 0.000000 4.998215 -4.632058 0.000000 3.435181 -11.841648 0.000000 -1.833065 -3.510332 0.000000 -1.670870 -6.981251 0.000000 -1.332133 -8.991430 0.000000 -2.308645 -19.109540 0.000000 14.416580 -11.278984 0.000000 10.115776 -1.892546 0.000000 -0.010264 -11.391358 0.000000 0.056677 -11.287426 0.000000 -0.340786 -8.273948 0.000000 0.661718 -4.944738 0.000000 0.108331 -9.424404 0.000000 -0.865639 -3.315263 0.000000 2.320458 -4.425903 0.000000 -0.966750 -4.690651 0.000000 1.886578 -2.285964 0.000000 -3.074112 -6.110685 0.000000 -1.178731 -3.173758 0.000000 3.861099 -8.545705 0.000000 1.841874 -2.665921 0.000000 0.364772 -10.982774 0.000000 4.048872 -2.518336 0.000000 -3.023998 -5.804407 0.000000 -3.072098 -4.722831 0.000000 -4.224457 -8.368816 0.000000 4.489452 1.506963 0.000000 6.708913 -23.110241 0.000000 -0.01