<VTKFile type="UnstructuredGrid" version="0.1" byte_order="LittleEndian">
  <UnstructuredGrid>
    <Piece NumberOfPoints="2000" NumberOfCells="0">
      <Points>
        <DataArray name="Position" type="Float32" NumberOfComponents="3" format="ascii">
-0.006609 -0.003968 0.000000 -0.006609 0.997355 0.000000 -0.006609 1.997355 0.000000 -0.006609 2.997355 0.000000 -0.009087 3.997356 0.000000 -0.009221 4.997356 0.000000 -0.009206 5.997356 0.000000 -0.009242 6.997356 0.000000 -0.006600 7.997357 0.000000 -0.009241 9.000000 0.000000 -0.006596 10.000001 0.000000 -0.009442 11.002643 0.000000 -0.006597 12.002644 0.000000 -0.006597 13.002644 0.000000 -0.009372 14.002644 0.000000 -0.006591 15.002644 0.000000 -0.006591 16.002645 0.000000 -0.034032 17.002645 0.000000 -0.006591 18.002645 0.000000 -0.059000 19.003968 0.000000 0.997352 -0.003968 0.000000 0.997352 0.997355 0.000000 0.993808 1.997355 0.000000 0.993544 2.997355 0.000000 0.993530 3.997356 0.000000 0.992108 4.997356 0.000000 0.992178 5.997356 0.000000 0.993526 6.997356 0.000000 0.993509 7.997357 0.000000 0.993777 9.000000 0.000000 0.993475 10.000001 0.000000 0.990789 11.002643 0.000000 0.995789 12.002644 0.000000 0.997089 13.002644 0.000000 0.991113 14.002644 0.000000 0.997343 15.002644 0.000000 0.996835 16.002645 0.000000 0.965935 17.002645 0.000000 0.993536 18.002645 0.000000 0.941324 19.003968 0.000000 1.997355 -0.003968 0.000000 1.997355 0.997355 0.000000 1.997230 1.997355 0.000000 1.993548 2.997355 0.000000 1.993565 3.997356 0.000000 1.993976 4.997356 0.000000 1.993833 5.997356 0.000000 1.993556 6.997356 0.000000 1.993510 7.997357 0.000000 1.993798 9.000000 0.000000 1.993500 10.000001 0.000000 1.990899 11.002643 0.000000 1.995811 12.002644 0.000000 1.997110 13.002644 0.000000 1.991136 14.002644 0.000000 1.997355 15.002644 0.000000 1.996861 16.002645 0.000000 1.966348 17.002645 0.000000 1.993546 18.002645 0.000000 1.941687 19.003969 0.000000 2.997355 -0.003968 0.000000 2.997355 0.996449 0.000000 2.997259 1.996900 0.000000 2.993550 2.997350 0.000000 2.993583 3.997353 0.000000 2.993987 4.997355 0.000000 2.994700 5.997356 0.000000 2.994715 6.997813 0.000000 2.993512 7.998266 0.000000 2.994002 9.000000 0.000000 2.993504 10.000001 0.000000 2.990918 11.002611 0.000000 2.995811 12.002645 0.000000 2.997110 13.002654 0.000000 2.991249 14.002657 0.000000 2.997355 15.002645 0.000000 2.996861 16.002672 0.000000 2.966345 17.002645 0.000000 2.993563 18.002645 0.000000 2.941761 19.003918 0.000000 3.997355 -0.004997 0.000000 3.997355 0.995623 0.000000 3.997267 1.995782 0.000000 3.993619 2.995868 0.000000 3.994632 3.996547 0.000000 3.994705 4.998864 0.000000 3.994716 5.998949 0.000000 3.994720 6.999099 0.000000 3.993512 7.999194 0.000000 3.994715 9.000006 0.000000 3.993523 10.000012 0.000000 3.990938 11.000902 0.000000 3.996571 12.002644 0.000000 3.997221 13.002644 0.000000 3.991471 14.002645 0.000000 3.997355 15.002645 0.000000 3.997094 16.002645 0.000000 3.966558 17.002646 0.000000 3.993570 18.003545 0.000000 3.941756 19.004926 0.000000 4.997356 -0.014453 0.000000 4.997356 0.989535 0.000000 4.997343 1.992049 0.000000 4.996823 2.994596 0.000000 4.995856 3.994690 0.000000 4.994718 4.994705 0.000000 4.994718 5.994717 0.000000 4.994720 6.994718 0.000000 4.993549 7.995443 0.000000 4.994717 8.997342 0.000000 4.993525 9.999230 0.000000 4.990973 10.999928 0.000000 4.996571 12.002644 0.000000 4.997221 13.002644 0.000000 4.991474 14.002644 0.000000 4.997356 15.002644 0.000000 4.997094 16.002645 0.000000 4.966649 17.002645 0.000000 4.993591 18.002645 0.000000 4.941946 19.003867 0.000000 5.997357 -0.006602 0.000000 5.997357 0.994750 0.000000 5.997358 1.995521 0.000000 5.997357 2.995867 0.000000 5.996015 3.997362 0.000000 5.994721 4.998178 0.000000 5.994748 5.998868 0.000000 5.995924 6.999203 0.000000 5.994341 7.999990 0.000000 5.994720 9.000009 0.000000 5.993540 10.000976 0.000000 5.991062 11.001866 0.000000 5.996579 12.002644 0.000000 5.997229 13.002644 0.000000 5.991497 14.002645 0.000000 5.997356 15.002645 0.000000 5.997105 16.002645 0.000000 5.966664 17.002646 0.000000 5.993592 18.003616 0.000000 5.942080 19.004757 0.000000 6.997357 -0.005047 0.000000 6.997357 0.995582 0.000000 6.997358 1.996438 0.000000 6.997357 2.996571 0.000000 6.996620 3.996989 0.000000 6.995444 4.997719 0.000000 6.994758 5.998275 0.000000 6.997346 6.999123 0.000000 6.994399 7.999209 0.000000 6.997346 8.999999 0.000000 6.995414 10.000001 0.000000 6.991131 11.002650 0.000000 6.996589 12.002644 0.000000 6.997239 13.002653 0.000000 6.991489 14.002644 0.000000 6.997356 15.002644 0.000000 6.997114 16.002645 0.000000 6.966676 17.002645 0.000000 6.993592 18.002645 0.000000 6.942408 19.003924 0.000000 7.997357 -0.003968 0.000000 7.997357 0.996782 0.000000 7.997358 1.997355 0.000000 7.997357 2.997355 0.000000 7.997359 3.997355 0.000000 7.997145 4.997355 0.000000 7.996322 5.997356 0.000000 7.997351 6.997357 0.000000 7.994413 7.997928 0.000000 7.997352 8.999999 0.000000 7.995422 10.000001 0.000000 7.991180 11.002643 0.000000 7.997344 12.002644 0.000000 7.997344 13.002644 0.000000 7.991488 14.002644 0.000000 7.997356 15.002644 0.000000 7.997341 16.002645 0.000000 7.966725 17.002645 0.000000 7.993596 18.002645 0.000000 7.942430 19.003969 0.000000 8.997357 -0.003968 0.000000 8.997357 0.997355 0.000000 8.997359 1.997355 0.000000 8.997357 2.997355 0.000000 8.997359 3.997356 0.000000 8.997345 4.997356 0.000000 8.997086 5.997356 0.000000 8.997352 6.997356 0.000000 8.994537 7.997355 0.000000 8.997353 9.000000 0.000000 8.995427 10.000001 0.000000 8.990929 11.002643 0.000000 8.997355 12.002644 0.000000 8.997353 13.002644 0.000000 8.991461 14.002644 0.000000 8.997357 15.002644 0.000000 8.997353 16.002645 0.000000 8.966766 17.002645 0.000000 8.993626 18.002645 0.000000 8.942496 19.003968 0.000000 9.997358 -0.003968 0.000000 9.997358 0.997355 0.000000 9.997359 1.997355 0.000000 9.997358 2.997355 0.000000 9.997359 3.997356 0.000000 9.997353 4.997356 0.000000 9.997089 5.997356 0.000000 9.997353 6.997356 0.000000 9.994603 7.997357 0.000000 9.997353 9.000000 0.000000 9.995429 10.000001 0.000000 9.990635 11.002643 0.000000 9.997355 12.002644 0.000000 9.997355 13.002644 0.000000 9.991482 14.002644 0.000000 9.997357 15.002644 0.000000 9.997355 16.002645 0.000000 9.966772 17.002645 0.000000 9.995450 18.002645 0.000000 9.942539 19.003968 0.000000 10.997358 -0.003968 0.000000 10.997358 0.997355 0.000000 10.997359 1.997355 0.000000 10.997358 2.997355 0.000000 10.997360 3.997356 0.000000 10.997361 4.997356 0.000000 10.997094 5.997356 0.000000 10.997359 6.997356 0.000000 10.994595 7.997357 0.000000 10.997359 9.000000 0.000000 10.995429 10.000001 0.000000 10.990519 11.002643 0.000000 10.997356 12.002644 0.000000 10.997356 13.002644 0.000000 10.991502 14.002644 0.000000 10.997357 15.002644 0.000000 10.997356 16.002645 0.000000 10.966776 17.002645 0.000000 10.995451 18.002645 0.000000 10.942637 19.003968 0.000000 11.997358 -0.003968 0.000000 11.997358 0.997355 0.000000 11.997359 1.997355 0.000000 11.997358 2.997355 0.000000 11.997360 3.997356 0.000000 11.997361 4.997356 0.000000 11.997098 5.997356 0.000000 11.997359 6.997356 0.000000 11.994445 7.997357 0.000000 11.997359 9.000000 0.000000 11.995431 10.000001 0.000000 11.990423 11.002643 0.000000 11.997356 12.002644 0.000000 11.997356 13.002644 0.000000 11.991503 14.002644 0.000000 11.997358 15.002644 0.000000 11.997356 16.002645 0.000000 11.966773 17.002645 0.000000 11.995458 18.002645 0.000000 11.942670 19.003968 0.000000 12.997359 -0.003968 0.000000 12.997359 0.997355 0.000000 12.997360 1.997355 0.000000 12.997359 2.997355 0.000000 12.997360 3.997356 0.000000 12.997361 4.997356 0.000000 12.997098 5.997356 0.000000 12.997360 6.997356 0.000000 12.994440 7.997357 0.000000 12.997360 9.000000 0.000000 12.997342 10.000001 0.000000 12.990314 11.002643 0.000000 12.997356 12.002644 0.000000 12.997356 13.002644 0.000000 12.991500 14.002644 0.000000 12.997358 15.002644 0.000000 12.997356 16.002645 0.000000 12.966769 17.002645 0.000000 12.995460 18.002645 0.000000 12.942700 19.003968 0.000000 13.997359 -0.003968 0.000000 13.997359 0.997355 0.000000 13.997360 1.997355 0.000000 13.997359 2.997355 0.000000 13.997361 3.997356 0.000000 13.997361 4.997356 0.000000 13.997100 5.997356 0.000000 13.997360 6.997356 0.000000 13.994396 7.997357 0.000000 13.997360 9.000000 0.000000 13.997352 10.000001 0.000000 13.990323 11.002643 0.000000 13.997356 12.002644 0.000000 13.997356 13.002644 0.000000 13.991498 14.002644 0.000000 13.997358 15.002644 0.000000 13.997356 16.002645 0.000000 13.966753 17.002645 0.000000 13.995462 18.002645 0.000000 13.942645 19.003968 0.000000 14.997359 -0.003968 0.000000 14.997359 0.997355 0.000000 14.997360 1.997355 0.000000 14.997359 2.997355 0.000000 14.997361 3.997356 0.000000 14.997362 4.997356 0.000000 14.997102 5.997356 0.000000 14.997360 6.997356 0.000000 14.994389 7.997357 0.000000 14.997360 9.000000 0.000000 14.997352 10.000001 0.000000 14.990316 11.002643 0.000000 14.997360 12.002644 0.000000 14.997360 13.002644 0.000000 14.991493 14.002644 0.000000 14.997359 15.002644 0.000000 14.997357 16.002645 0.000000 14.966762 17.002645 0.000000 14.995464 18.002645 0.000000 14.942677 19.003968 0.000000 15.997359 -0.003968 0.000000 15.997359 0.997355 0.000000 15.997361 1.997355 0.000000 15.997359 2.997355 0.000000 15.997361 3.997356 0.000000 15.997362 4.997356 0.000000 15.997101 5.997356 0.000000 15.997361 6.997356 0.000000 15.994379 7.997357 0.000000 15.997361 9.000000 0.000000 15.997355 10.000001 0.000000 15.990327 11.002643 0.000000 15.997362 12.002644 0.000000 15.997362 13.002644 0.000000 15.991482 14.002644 0.000000 15.997359 15.002644 0.000000 15.997357 16.002645 0.000000 15.966761 17.002645 0.000000 15.995489 18.002645 0.000000 15.942440 19.003968 0.000000 16.997360 -0.003968 0.000000 16.997360 0.997355 0.000000 16.997361 1.997355 0.000000 16.997360 2.997355 0.000000 16.997362 3.997356 0.000000 16.997362 4.997356 0.000000 16.997099 5.997356 0.000000 16.997361 6.997356 0.000000 16.994367 7.997357
[...]
      <PointData Vectors="vector">
        <DataArray type="Float32" Name="Velocity" NumberOfComponents="3" format="ascii">
-0.015000 -0.009000 0.000000 -0.015000 -0.006000 0.000000 -0.015000 -0.006000 0.000000 -0.015000 -0.006000 0.000000 -0.021000 -0.006000 0.000000 -0.021000 -0.006000 0.000000 -0.021000 -0.006000 0.000000 -0.021000 -0.006000 0.000000 -0.015000 -0.006000 0.000000 -0.021000 0.000000 0.000000 -0.015000 0.000000 0.000000 -0.333010 0.006000 0.000000 -0.015000 0.006000 0.000000 -0.015000 0.006000 0.000000 -0.291010 0.006000 0.000000 -0.015000 0.006000 0.000000 -0.015000 0.006000 0.000000 -0.540012 0.006000 0.000000 -0.015000 0.006000 0.000000 -0.669008 0.009000 0.000000 -0.006000 -0.009000 0.000000 -0.006000 -0.006000 0.000000 -0.018000 -0.006000 0.000000 -0.018000 -0.006000 0.000000 -0.018000 -0.006000 0.000000 -0.018000 -0.006000 0.000000 -0.018000 -0.006000 0.000000 -0.018000 -0.006000 0.000000 -0.018000 -0.006000 0.000000 -0.018000 0.000000 0.000000 -0.018000 0.000000 0.000000 -0.305997 0.006000 0.000000 -0.018000 0.006000 0.000000 -0.018000 0.006000 0.000000 -0.288010 0.006000 0.000000 -0.006000 0.006000 0.000000 -0.018000 0.006000 0.000000 -0.518999 0.006000 0.000000 -0.018000 0.006000 0.000000 -0.576022 0.009000 0.000000 -0.006000 -0.009000 0.000000 -0.006000 -0.006000 0.000000 -0.018000 -0.005995 0.000000 -0.018000 -0.006000 0.000000 -0.018000 -0.006000 0.000000 -0.018000 -0.006000 0.000000 -0.018000 -0.006000 0.000000 -0.018000 -0.006000 0.000000 -0.018000 -0.006000 0.000000 -0.018000 0.000000 0.000000 -0.018000 0.000000 0.000000 -0.276033 0.006001 0.000000 -0.018000 0.006000 0.000000 -0.018000 0.006000 0.000000 -0.215985 0.005999 0.000000 -0.006000 0.006000 0.000000 -0.018000 0.006000 0.000000 -0.513007 0.006000 0.000000 -0.018000 0.006000 0.000000 -0.594006 0.009015 0.000000 -0.006000 -0.009000 0.000000 -0.006000 -0.012000 0.000000 -0.011971 -0.011985 0.000000 -0.018030 -0.006000 0.000000 -0.018003 -0.005997 0.000000 -0.017998 -0.006009 0.000000 -0.011999 -0.006004 0.000000 -0.011998 -0.000007 0.000000 -0.018002 0.000000 0.000000 -0.018000 -0.000000 0.000000 -0.018000 -0.000000 0.000000 -0.324002 0.001961 0.000000 -0.017990 0.006000 0.000000 -0.017966 0.006000 0.000000 -0.246059 0.006003 0.000000 -0.005967 0.006000 0.000000 -0.018003 0.012000 0.000000 -0.555009 0.005999 0.000000 -0.018000 0.006000 0.000000 -0.723014 0.008041 0.000000 -0.006000 -0.015000 0.000000 -0.006000 -0.012000 0.000000 -0.011985 -0.011912 0.000000 -0.018016 -0.011929 0.000000 -0.011986 -0.005975 0.000000 -0.012013 0.000042 0.000000 -0.012007 0.000020 0.000000 -0.011993 0.000027 0.000000 -0.018000 0.000000 0.000000 -0.012000 0.000032 0.000000 -0.018000 0.000034 0.000000 -0.347996 -0.000504 0.000000 -0.012000 0.006000 0.000000 -0.012000 0.006000 0.000000 -0.240000 0.005999 0.000000 -0.006000 0.006000 0.000000 -0.012000 0.006000 0.000000 -0.468005 0.006003 0.000000 -0.018001 0.006000 0.000000 -0.579060 0.017083 0.000000 -0.006000 -0.033000 0.000000 -0.006000 -0.030000 0.000000 -0.006000 -0.018105 0.000000 -0.012000 -0.006082 0.000000 -0.012000 -0.012035 0.000000 -0.012001 -0.012065 0.000000 -0.012000 -0.012031 0.000000 -0.012000 -0.012055 0.000000 -0.018000 -0.012044 0.000000 -0.012000 -0.006065 0.000000 -0.018000 -0.000078 0.000000 -0.330208 -0.004837 0.000000 -0.012000 0.006000 0.000000 -0.012000 0.006000 0.000000 -0.186022 0.005999 0.000000 -0.006000 0.006000 0.000000 -0.012000 0.006000 0.000000 -0.503993 0.005996 0.000000 -0.018000 0.006000 0.000000 -0.816109 0.006818 0.000000 -0.006000 -0.015000 0.000000 -0.006000 -0.012000 0.000000 -0.006000 -0.011922 0.000000 -0.006000 -0.011914 0.000000 -0.011988 -0.005958 0.000000 -0.012012 -0.005958 0.000000 -0.012009 0.000021 0.000000 -0.017990 0.000051 0.000000 -0.228002 0.000260 0.000000 -0.011999 0.000033 0.000000 -0.018003 0.000043 0.000000 -0.168636 0.007822 0.000000 -0.011999 0.006000 0.000000 -0.012000 0.006000 0.000000 -0.194979 0.006001 0.000000 -0.006000 0.006000 0.000000 -0.012000 0.006000 0.000000 -0.552007 0.006005 0.000000 -0.017992 0.006000 0.000000 -0.743993 0.017274 0.000000 -0.006000 -0.015000 0.000000 -0.006000 -0.012000 0.000000 -0.006000 -0.011997 0.000000 -0.006000 -0.005998 0.000000 -0.011981 -0.012000 0.000000 -0.006018 -0.000009 0.000000 -0.012001 -0.000005 0.000000 -0.006000 -0.000005 0.000000 -0.210000 0.000313 0.000000 -0.006000 -0.000000 0.000000 -0.012000 -0.000000 0.000000 -0.227206 0.001568 0.000000 -0.011973 0.006000 0.000000 -0.011996 0.012000 0.000000 -0.222007 0.005999 0.000000 -0.006000 0.006000 0.000000 -0.012000 0.006000 0.000000 -0.456004 0.005997 0.000000 -0.018000 0.006000 0.000000 -0.695957 0.007728 0.000000 -0.006000 -0.009000 0.000000 -0.006000 -0.012000 0.000000 -0.006000 -0.005980 0.000000 -0.006000 -0.005995 0.000000 -0.006000 -0.006000 0.000000 -0.018000 -0.006000 0.000000 -0.018000 -0.006000 0.000000 -0.005992 -0.006013 0.000000 -0.204058 -0.000201 0.000000 -0.006000 0.000000 0.000000 -0.012000 0.000000 0.000000 -0.243143 0.005990 0.000000 -0.006000 0.006000 0.000000 -0.006000 0.006000 0.000000 -0.239998 0.006000 0.000000 -0.006000 0.006000 0.000000 -0.006000 0.006000 0.000000 -0.438029 0.006000 0.000000 -0.018000 0.006000 0.000000 -0.720089 0.009041 0.000000 -0.006000 -0.009000 0.000000 -0.006000 -0.006000 0.000000 -0.006000 -0.006000 0.000000 -0.006000 -0.006000 0.000000 -0.006000 -0.006000 0.000000 -0.006000 -0.006000 0.000000 -0.042000 -0.006000 0.000000 -0.006000 -0.006000 0.000000 -0.185966 -0.006329 0.000000 -0.006000 0.000000 0.000000 -0.012000 0.000000 0.000000 -0.156129 0.006000 0.000000 -0.006000 0.006000 0.000000 -0.006000 0.006000 0.000000 -0.207011 0.006000 0.000000 -0.006000 0.006000 0.000000 -0.006000 0.006000 0.000000 -0.461993 0.006000 0.000000 -0.018000 0.006000 0.000000 -0.690111 0.008999 0.000000 -0.006000 -0.009000 0.000000 -0.006000 -0.006000 0.000000 -0.006000 -0.006000 0.000000 -0.006000 -0.006000 0.000000 -0.006000 -0.006000 0.000000 -0.006000 -0.006000 0.000000 -0.072000 -0.006000 0.000000 -0.006000 -0.006000 0.000000 -0.176994 -0.006000 0.000000 -0.006000 -0.000000 0.000000 -0.012000 0.000000 0.000000 -0.149747 0.006000 0.000000 -0.006000 0.006000 0.000000 -0.006000 0.006000 0.000000 -0.222003 0.006000 0.000000 -0.006000 0.006000 0.000000 -0.006000 0.006000 0.000000 -0.456013 0.006000 0.000000 -0.012000 0.006000 0.000000 -0.683825 0.009000 0.000000 -0.006000 -0.009000 0.000000 -0.006000 -0.006000 0.000000 -0.006000 -0.006000 0.000000 -0.006000 -0.006000 0.000000 -0.006000 -0.006000 0.000000 -0.006000 -0.006000 0.000000 -0.048000 -0.006000 0.000000 -0.006000 -0.006000 0.000000 -0.207104 -0.006000 0.000000 -0.006000 0.000000 0.000000 -0.012000 0.000000 0.000000 -0.173982 0.006000 0.000000 -0.006000 0.006000 0.000000 -0.006000 0.006000 0.000000 -0.227989 0.006000 0.000000 -0.006000 0.006000 0.000000 -0.006000 0.006000 0.000000 -0.501030 0.006000 0.000000 -0.012000 0.006000 0.000000 -0.672098 0.009000 0.000000 -0.006000 -0.009000 0.000000 -0.006000 -0.006000 0.000000 -0.006000 -0.006000 0.000000 -0.006000 -0.006000 0.000000 -0.006000 -0.006000 0.000000 -0.006000 -0.006000 0.000000 -0.063000 -0.006000 0.000000 -0.006000 -0.006000 0.000000 -0.137905 -0.006000 0.000000 -0.006000 0.000000 0.000000 -0.012000 0.000000 0.000000 -0.198527 0.006000 0.000000 -0.006000 0.006000 0.000000 -0.006000 0.006000 0.000000 -0.219005 0.006000 0.000000 -0.006000 0.006000 0.000000 -0.006000 0.006000 0.000000 -0.468005 0.006000 0.000000 -0.012000 0.006000 0.000000 -0.642038 0.009000 0.000000 -0.006000 -0.009000 0.000000 -0.006000 -0.006000 0.000000 -0.006000 -0.006000 0.000000 -0.006000 -0.006000 0.000000 -0.006000 -0.006000 0.000000 -0.006000 -0.006000 0.000000 -0.063000 -0.006000 0.000000 -0.006000 -0.006000 0.000000 -0.131998 -0.006000 0.000000 -0.006000 0.000000 0.000000 -0.006000 0.000000 0.000000 -0.194566 0.006000 0.000000 -0.006000 0.006000 0.000000 -0.006000 0.006000 0.000000 -0.186011 0.006000 0.000000 -0.006000 0.006000 0.000000 -0.006000 0.006000 0.000000 -0.564022 0.006000 0.000000 -0.012000 0.006000 0.000000 -0.621412 0.009000 0.000000 -0.006000 -0.009000 0.000000 -0.006000 -0.006000 0.000000 -0.006000 -0.006000 0.000000 -0.006000 -0.006000 0.000000 -0.006000 -0.006000 0.000000 -0.006000 -0.006000 0.000000 -0.066000 -0.006000 0.000000 -0.006000 -0.006000 0.000000 -0.143995 -0.006000 0.000000 -0.006000 0.000000 0.000000 -0.006000 0.000000 0.000000 -0.167884 0.006000 0.000000 -0.006000 0.006000 0.000000 -0.006000 0.006000 0.000000 -0.182979 0.006000 0.000000 -0.006000 0.006000 0.000000 -0.006000 0.006000 0.000000 -0.500955 0.006000 0.000000 -0.012000 0.006000 0.000000 -0.722910 0.009000 0.000000 -0.006000 -0.009000 0.000000 -0.006000 -0.006000 0.000000 -0.006000 -0.006000 0.000000 -0.006000 -0.006000 0.000000 -0.006000 -0.006000 0.000000 -0.006000 -0.006000 0.000000 -0.063000 -0.006000 0.000000 -0.006000 -0.006000 0.000000 -0.143999 -0.006000 0.000000 -0.006000 0.000000 0.000000 -0.006000 0.000000 0.000000 -0.219001 0.006000 0.000000 -0.006000 0.006000 0.000000 -0.006000 0.006000 0.000000 -0.144001 0.006000 0.000000 -0.006000 0.006000 0.000000 -0.006000 0.006000 0.000000 -0.489061 0.006000 0.000000 -0.012000 0.006000 0.000000 -0.603103 0.009000 0.000000 -0.006000 -0.009000 0.000000 -0.006000 -0.006000 0.000000 -0.006000 -0.006000 0.000000 -0.006000 -0.006000 0.000000 -0.006000 -0.006000 0.000000 -0.006000 -0.006000 0.000000 -0.066000 -0.006000 0.000000 -0.006000 -0.006000 0.000000 -0.144000 -0.006000 0.000000 -0.006000 0.000000 0.000000 -0.006000 0.000000 0.000000 -0.189100 0.006000 0.000000 -0.006000 0.006000 0.000000 -0.006000 0.006000 0.000000 -0.174057 0.006000 0.000000 -0.006000 0.006000 0.000000 -0.006000 0.006000 0.000000 -0.489013 0.006000 0.000000 -0.012000 0.006000 0.000000 -0.665876 0.009000 0.000000 -0.006000 -0.009000 0.000000 -0.006000 -0.006000 0.000000 -0.006000 -0.006000 0.000000 -0.006000 -0.006000 0.000000 -0.006000 -0.006000 0.000000 -0.006000 -0.006000 0.000000 -0.054000 -0.006000 0.000000 -0.006000 -0.006000 0.000000 -0.150027 -0.006000 0.000000 -0.006000 0.000000 0.000000 -0.006000 0.000000 0.000000 -0.222010 0.006000 0.000000 -0.006000 0.006000 0.000000 -0.006000 0.006000 0.000000 -0.218993 0.006000 0.000000 -0.006000 0.006000 0.000000 -0.006000 0.006000 0.000000 -0.579156 0.006000 0.000000 -0.012000 0.006000 0.000000 -0.632943 0.009000 0.000000 -0.006000 -0.009000 0.000000 -0.006000 -0.006000 0.000000 -0.006000 -0.006000 0.000000 -0.006000 -0.006000 0.000000 -0.006000 -0.006000 0.000000 -0.006000 -0.006000 0.000000 -0.048000 -0.006000 0.000000 -0.006000 -0.006000 0.000000 -0.161986 -0.006000 0.000000 -0.006000 0.000000 0.000000 -0.006000 0.000000 0.000000 -0.234071 0.006000 0.000000 -0.006000 0.006000 0.000000 -0.006000 0.006000 0.000000 -0.252020 0.006000 0.000000 -0.006000 0.006000 0.000000 -0.006000 0.006000 0.000000 -0.509998 0.006000 0.000000 -0.006000 0.006000 0.000000 -0.780489 0.009000 0.000000 -0.006000 -0.009000 0.000000 -0.006000 -0.006000 0.000000 -0.006000 -0.006000 0.000000 -0.006000 -0.006000 0.000000 -0.006000 -0.006000 0.000000 -0.006000 -0.006000 0.000000 -0.054000 -0.006000 0.000000 -0.006000 -0.006000 0.000000 -0.167993 -0.006000 0.000000 -0.006000 0.000000 0.000000 -0.006000 0.000000 0.000000 -0.270067 0.006000 0.000000 -0.006000 0.006000 0.000000 -0.006000 0.006000 0.000000 -0.203996 0.006000 0.000000 -0.006000 0.006000 0.000000 -0.006000 0.006000 0.000000 -0.512752 0.006000 0.000000 -0.006000 0.006000 0.000000 -0.623085 0.009000 0.000000 -0.006000 -0.009000 0.000000 -0.006000 -0.006000 0.000000 -0.006000 -0.006000 0.000000 -0.006000 -0.006000 0.000000 -0.006000 -0.006000 0.000000 -0.006000 -0.006000 0.000000 -0.069001 -0.006000 0.000000 -0.006000 -0.006000 0.000000 -0.167997 -0.006000 0.000000 -0.006000 0.000000 0.000000 -0.006000 0.000000 0.000000 -0.203782 0.006000 0.000000 -0.006000 0.006000 0.000000 -0.006000 0.006000 0.000000 -0.252043 0.006000 0.000000 -0.006000 0.006000 0.000000 -0.006000 0.006000 0.000000 -0.570001 0.006000 0.000000 -0.006000 0.006000 0.000000 -0.662997 0.009000 0.000000 -0.006000 -0.009000 0.000000 -0.006000 -0.006000 0.000000 -0.006000 -0.006000 0.000000 -0.006000 -0.006000 0.000000 -0.006000 -0.006000 0.000000 -0.006000 -0.006000 0.000000 -0.065999 -0.006000 0.000000 -0.006000 -0.006000 0.000000 -0.168000 -0.006000 0.000000 -0.006000 0.000000 0.000000 -0.006000 0.000000 0.000000 -0.198847 0.006000 0.000000 -0.006000 0.006000 0.000000 -0.000000 0.006000 0.000000 -0.224949 0.006000 0.000000 -0.006000 0.006000 0.000000 -0.000000 0.006000 0.000000 -0.573476 0.006000 0.000000 -0.006000 0.006000 0.000000 -0.664814 0.009000 0.000000 -0.006000 -0.009000 0.000000 -0.006000 -0.006000 0.000000 -0.006000 -0.006000 0.000000 -0.006000 -0.006000 0.000000 -0.006000 -0.006000 0.000000 -0.006000 -0.006000 0.000000 -0.075000 -0.006000 0.000000 -0.006000 -0.006000 0.000000 -0.180000 -0.006000 0.000000 -0.006000 0.000000 0.000000 -0.006000 0.000000 0.000000 -0.269205 0.006000 0.000000 -0.000000 0.006000 0.000000 -0.000000 0.006000 0.000000 -0.255104 0.006000 0.000000 -0.006000 0.006000 0.000000 0.000000 0.006000 0.000000 -0.462087 0.006000 0.000000 -0.114000 0.006000 0.000000 -0.666160 0.009000 0.000000 -0.006000 -0.009000 0.000000 -0.006000 -0.006000 0.000000 -0.006000 -0.006000 0.000000 -0.006000 -0.006000 0.000000 -0.006000 -0.006000 0.000000 -0.006000 -0.006000 0.000000 -0.066000 -0.006000 0.000000 -0.006000 -0.006000 0.000000 -0.174002 -0.006000 0.000000 -0.006000 0.000000 0.000000 -0.006000 0.000000 0.000000 -0.282308 0.006000 0.000000 -0.000000 0.006000 0.000000 -0.000000 0.006000 0.000000 -0.233921 0.006000 0.000000 -0.006000 0.006000 0.000000 0.000000 0.006000 0.000000 -0.492279 0.006000 0.000000 -0.120001 0.006000 0.000000 -0.623661 0.009000 0.000000 -0.006000 -0.009000 0.000000 -0.006000 -0.006000 0.000000 -0.006000 -0.006000 0.000000 -0.006000 -0.006000 0.000000 -0.006000 -0.006000 0.000000 -0.006000 -0.006000 0.000000 -0.060000 -0.006000 0.000000 -0.006000 -0.006000 0.000000 -0.180010 -0.006000 0.000000 -0.006000 0.000000 0.000000 -0.006000 0.000000 0.000000 -0.209829 0.006000 0.000000 -0.000000 0.006000 0.000000 -0.000000 0.006000 0.000000 -0.258033 0.006000 0.000000 -0.006000 0.006000 0.000000 0.000000 0.006000 0.000000 -0.486333 0.006001 0.000000 -0.114000 0.006000 0.000000 -0.627929 0.009005 0.000000 -0.006000 -0.009000 0.000000 -0.006000 -0.006000 0.000000 -0.006000 -0.006000 0.000000 -0.006000 -0.006000 0.000000 -0.006000 -0.006000 0.000000 -0.006000 -0.006000 0.000000 -0.066000 -0.006000 0.000000 -0.006000 -0.006000 0.000000 -0.180008 -0.005998 0.000000 -0.006000 0.000000 0.000000 -0.006000 0.000000 0.000000 -0.213381 0.005972 0.000000 -0.000000 0.006000 0.000000 -0.000000 0.006000 0.000000 -0.162125 0.006000 0.000000 -0.006000 0.006000 0.000000 -0.000000 0.006000 0.000000 -0.541394 0.005973 0.000000 -0.117002 0.006000 0.000000 -0.724809 0.008811 0.000000 -0.006000 -0.009000 0.000000 -0.006000 -0.006000 0.000000 -0.000000 -0.006000 0.000000 -0.006000 -0.006000 0.000000 -0.000000 -0.006000 0.000000 -0.006000 -0.006000 0.000000 -0.072008 -0.006000 0.000000 -0.006000 -0.006000 0.000000 -0.186022 -0.006227 0.000000 -0.006000 0.000000 0.000000 -0.006000 0.000000 0.000000 -0.187210 0.007030 0.000000 -0.000000 0.006000 0.000000 -0.000000 0.006000 0.000000 -0.216144 0.005978 0.000000 -0.006000 0.006000 0.000000 -0.000000 0.006000 0.000000 -0.455335 0.006379 0.000000 -0.138598 0.006006 0.000000 -0.716494 0.013042 0.000000 -0.006000 -0.009000 0.000000 -0.006000 -0.012000 0.000000 0.000000 -0.005999 0.000000 -0.006007 -0.006000 0.000000 0.000014 -0.006000 0.000000 -0.000007 -0.006000 0.000000 -0.066963 -0.006059 0.000000 -0.005999 -0.006000 0.000000 -0.160582 -0.001623 0.000000 -0.006000 0.000000 0.000000 -0.000000 0.000000 0.000000 -0.234907 -0.001317 0.000000 0.000004 -0.000000 0.000000 0.006022 0.000001 0.000000 -0.258208 0.003707 0.000000 -0.005968 0.012000 0.000000 0.006066 0.011998 0.000000 -0.551149 -0.008230 0.000000 -0.407523 0.002852 0.000000 -0.731491 -0.034226 0.000000 -0.006000 -0.009000 0.000000 -0.006000 -0.012000 0.000000 0.005997 -0.012001 0.000000 -0.000008 -0.005989 0.000000 0.000026 -0.006000 0.000000 -0.000017 -0.006000 0.000000 -0.209994 0.019742 0.000000 -0.005999 0.000008 0.000000 -0.175020 0.066290 0.000000 -0.006000 -0.000000 0.000000 -0.000000 -0.000000 0.000000 -0.341406 0.049828 0.000000 0.000699 0.024051 0.000000 0.005961 0.041999 0.000000 -0.226955 0.041656 0.000000 -0.005756 0.047999 0.000000 0.006013 0.054003 0.000000 -2.591777 0.253761 0.000000 -0.519448 0.102122 0.000000 -3.429300 0.042800 0.000000 -0.006000 -0.339006 0.000000 -0.006005 -0.408021 0.000000 -0.006257 -0.515948 0.000000 -0.001399 -0.453010 0.000000 0.001160 -0.489029 0.000000 0.004928 -0.587998 0.000000 -0.334495 -0.391034 0.000000 0.018527 -0.395893 0.000000 -0.649356 -0.476525 0.000000 0.007358 -0.473913 0.000000 0.020922 -0.377739 0.000000 -0.508699 -0.458675 0.000000 0.023780 -0.420154 0.000000 -0.004811 -0.338990 0.000000 -0.132077 -0.348451 0.000000 -0.006621 -0.546056 0.000000 0.149255 -0.662286 0.000000 -0.590987 -0.693632 0.000000 -1.605724 -2.431821 0.000000 1.434940 1.309637 0.000000 -0.014812 -5.079082 0.000000 -0.022068 -5.037114 0.000000 -0.045864 -5.038519 0.000000 0.044209 -9.431199 0.000000 -0.148939 -4.097692 0.000000 -0.356451 -8.827577 0.000000 0.797165 -2.828801 0.000000 -1.289137 -5.613541 0.000000 1.626546 -4.257945 0.000000 -0.582729 -0.722980 0.000000 0.760851 -7.022394 0.000000 0.800113 -0.753257 0.000000 -0.467942 1.823466 0.000000 0.436811 -0.026315 0.000000 0.267667 -3.006601 0.000000 -0.420998 -0.831163 0.000000 1.373801 -0.223939 0.000000 0.131806 1.461264 0.000000 -0.258020 3.570400 0.000000 7.045186 -2.237465 0.000000 -0.011044 -5.010154 0.000000 -0.006371 -5.067231 0.000000 -0.049517 -5.144585 0.000000 0.066046 -9.736769 0.000000 -0.118851 -4.309185 0.000000 -0.316416 -9.634027 0.000000 0.887766 -3.698035 0.000000 -1.364001 -9.243654 0.000000 1.886152 -2.758789 0.000000 -2.057304 -9.516254 0.000000 0.795343 -2.248578 0.000000 2.787496 -6.855793 0.000000 -2.825618 -3.719377 0.000000 1.587732 -0.483517 0.000000 0.559411 -3.912850 0.000000 -1.759931 -5.309241 0.000000 1.681779 -0.338980 0.000000 -4.291977 -5.405802 0.000000 1.969546 1.166613 0.000000 7.944625 -10.243124 0.000000 -0.011139 -4.968025 0.000000 -0.009526 -5.007092 0.000000 -0.037538 -5.049361 0.000000 0.069404 -9.727220 0.000000 -0.021944 -4.382725 0.000000 -0.258312 -9.544929 0.000000 0.738526 -3.605904 0.000000 -1.647620 -9.041578 0.000000 1.978359 -2.630605 0.000000 -2.111120 -8.769933 0.000000 -0.373307 -1.853467 0.000000 2.797614 -6.310738 0.000000 -3.443855 -3.348930 0.000000 1.631667 -0.319528 0.000000 0.422477 -3.280948 0.000000 -1.900796 -3.158047 0.000000 1.866602 -5.965782 0.000000 3.100899 -4.487460 0.000000 -0.574072 1.695063 0.000000 3.927514 -7.207869 0.000000 -0.006254 -5.022128 0.000000 -0.002130 -5.160256 0.000000 -0.020937 -5.096230 0.000000 0.063780 -9.777657 0.000000 -0.021443 -4.313651 0.000000 -0.206424 -9.611853 0.000000 0.978095 -3.612422 0.000000 -1.751925 -8.989352 0.000000 2.100731 -2.845188 0.000000 -2.263825 -8.893263 0.000000 1.345947 -1.561378 0.000000 3.254433 -5.999456 0.000000 -3.250171 -3.837417 0.000000 1.631149 -0.445595 0.000000 0.846943 -5.387931 0.000000 -2.537033 -5.403367 0.000000 2.085846 -4.201513 0.000000 3.079984 -3.752878 0.000000 -2.442922 -0.438999 0.000000 -0.463722 -8.969849 0.000000 -0.005239 -5.031117 0.000000 -0.010882 -5.061142 0.000000 -0.037215 -5.045457 0.000000 0.099589 -9.722264 0.000000 -0.136843 -4.396710 0.000000 -0.190963 -9.673972 0.000000 0.679953 -3.623825 0.000000 -1.772939 -9.070276 0.000000 2.078349 -2.851690 0.000000 -2.151793 -8.947025 0.000000 0.479498 -1.710173 0.000000 3.429740 -6.248373 0.000000 -2.827379 -3.705014 0.000000 1.658193 -0.398823 0.000000 0.779496 -5.610149 0.000000 -2.456672 -5.119955 0.000000 1.903604 -4.172738 0.000000 4.907037 -3.572198 0.000000 -2.001947 -2.250172 0.0