<VTKFile type="UnstructuredGrid" version="0.1" byte_order="LittleEndian">
  <UnstructuredGrid>
    <Piece NumberOfPoints="2000" NumberOfCells="0">
      <Points>
        <DataArray name="Position" type="Float32" NumberOfComponents="3" format="ascii">
-0.008274 -0.004967 0.000000 -0.008564 0.996689 0.000000 -0.008274 1.996689 0.000000 -0.012381 2.996689 0.000000 -0.023948 3.996689 0.000000 -0.011552 4.996690 0.000000 -0.039285 5.996690 0.000000 -0.011573 6.996690 0.000000 -0.048286 7.996691 0.000000 -0.011572 9.000000 0.000000 -0.008786 10.000001 0.000000 -0.062458 11.003309 0.000000 -0.008262 12.003310 0.000000 -0.008262 13.003310 0.000000 -0.055341 14.003310 0.000000 -0.008256 15.003310 0.000000 -0.008256 16.003311 0.000000 -0.117379 17.003311 0.000000 -0.035412 18.003311 0.000000 -0.159655 19.004967 0.000000 0.994585 -0.004967 0.000000 0.991643 0.996592 0.000000 0.991810 1.996689 0.000000 0.988050 2.996744 0.000000 0.976077 3.996733 0.000000 0.990110 4.996690 0.000000 0.963149 5.996690 0.000000 0.991528 6.996690 0.000000 0.953272 7.996684 0.000000 0.991779 9.000000 0.000000 0.991502 10.000001 0.000000 0.938754 11.003309 0.000000 0.993791 12.003310 0.000000 0.995091 13.003310 0.000000 0.944850 14.003310 0.000000 0.995443 15.003310 0.000000 0.994837 16.003311 0.000000 0.883269 17.003311 0.000000 0.965326 18.003311 0.000000 0.840988 19.004967 0.000000 1.994753 -0.004967 0.000000 1.991632 0.996089 0.000000 1.995234 1.996689 0.000000 1.988208 2.996686 0.000000 1.980326 3.996690 0.000000 1.991979 4.996689 0.000000 1.964986 5.996684 0.000000 1.991558 6.996690 0.000000 1.953296 7.997203 0.000000 1.991800 9.000000 0.000000 1.991506 10.000001 0.000000 1.938869 11.003320 0.000000 1.993813 12.003310 0.000000 1.995112 13.003310 0.000000 1.944992 14.003309 0.000000 1.995478 15.003310 0.000000 1.994863 16.003311 0.000000 1.883272 17.003311 0.000000 1.965996 18.003312 0.000000 1.841045 19.004979 0.000000 2.994766 -0.004959 0.000000 2.991622 0.995119 0.000000 2.995930 1.995570 0.000000 2.988293 2.996218 0.000000 2.981465 3.996503 0.000000 2.991990 4.996905 0.000000 2.965029 5.996982 0.000000 2.993383 6.997813 0.000000 2.953441 7.998217 0.000000 2.992004 9.000000 0.000000 2.991526 10.000001 0.000000 2.938846 11.002951 0.000000 2.993814 12.003311 0.000000 2.995116 13.003320 0.000000 2.945047 14.003325 0.000000 2.995697 15.003311 0.000000 2.994863 16.004004 0.000000 2.883515 17.003311 0.000000 2.966043 18.003213 0.000000 2.841340 19.004641 0.000000 3.994950 -0.006588 0.000000 3.991779 0.994426 0.000000 3.995936 1.994460 0.000000 3.988361 2.994567 0.000000 3.981609 3.996008 0.000000 3.993372 4.998869 0.000000 3.965287 5.999157 0.000000 3.993393 6.999761 0.000000 3.953459 8.000203 0.000000 3.993383 9.000009 0.000000 3.991527 10.000016 0.000000 3.938825 11.000819 0.000000 3.995239 12.003310 0.000000 3.995889 13.003310 0.000000 3.945051 14.003309 0.000000 3.996052 15.003311 0.000000 3.995762 16.003311 0.000000 3.883657 17.003313 0.000000 3.965997 18.004434 0.000000 3.841342 19.007208 0.000000 4.994899 -0.018210 0.000000 4.991790 0.986036 0.000000 4.996677 1.990039 0.000000 4.988417 2.991328 0.000000 4.982658 3.992557 0.000000 4.993385 4.992665 0.000000 4.965259 5.992288 0.000000 4.993499 6.992509 0.000000 4.953390 7.992067 0.000000 4.993385 8.996669 0.000000 4.991544 9.999221 0.000000 4.939000 10.999019 0.000000 4.995239 12.003310 0.000000 4.995889 13.003310 0.000000 4.945250 14.003310 0.000000 4.996062 15.003310 0.000000 4.995762 16.003311 0.000000 4.883663 17.003310 0.000000 4.965943 18.003024 0.000000 4.841399 19.004175 0.000000 5.994874 -0.008183 0.000000 5.991793 0.993582 0.000000 5.996692 1.994198 0.000000 5.988585 2.994573 0.000000 5.983533 3.997065 0.000000 5.993402 4.997517 0.000000 5.965408 5.999375 0.000000 5.993933 6.999623 0.000000 5.953365 8.000824 0.000000 5.993389 9.000607 0.000000 5.991999 10.000982 0.000000 5.939304 11.002935 0.000000 5.995247 12.003310 0.000000 5.995897 13.003310 0.000000 5.946154 14.003307 0.000000 5.996065 15.003311 0.000000 5.995773 16.003311 0.000000 5.883674 17.003313 0.000000 5.965991 18.004631 0.000000 5.841341 19.007129 0.000000 6.995047 -0.006714 0.000000 6.992013 0.994231 0.000000 6.996692 1.995106 0.000000 6.988757 2.995651 0.000000 6.983712 3.995764 0.000000 6.994776 4.997718 0.000000 6.965488 5.998405 0.000000 6.995941 6.999124 0.000000 6.953497 7.999389 0.000000 6.996680 8.999999 0.000000 6.994082 10.000001 0.000000 6.939353 11.002865 0.000000 6.995260 12.003310 0.000000 6.995911 13.003329 0.000000 6.946253 14.003345 0.000000 6.996078 15.003311 0.000000 6.995782 16.003939 0.000000 6.883776 17.003310 0.000000 6.965986 18.003119 0.000000 6.841299 19.004524 0.000000 7.995055 -0.004945 0.000000 7.992025 0.995458 0.000000 7.996692 1.996189 0.000000 7.988842 2.996366 0.000000 7.983750 3.996544 0.000000 7.995153 4.996912 0.000000 7.965522 5.996798 0.000000 7.996260 6.997175 0.000000 7.953492 7.997770 0.000000 7.996686 8.999999 0.000000 7.994090 10.000001 0.000000 7.939435 11.003335 0.000000 7.996678 12.003310 0.000000 7.996678 13.003310 0.000000 7.946254 14.003306 0.000000 7.996475 15.003310 0.000000 7.996675 16.003311 0.000000 7.883760 17.003311 0.000000 7.966134 18.003316 0.000000 7.841404 19.005000 0.000000 8.995266 -0.004967 0.000000 8.992029 0.996397 0.000000 8.996693 1.996690 0.000000 8.988994 2.996698 0.000000 8.983827 3.996695 0.000000 8.996680 4.997011 0.000000 8.965586 5.996690 0.000000 8.996327 6.996690 0.000000 8.953537 7.996423 0.000000 8.996687 9.000000 0.000000 8.994095 10.000001 0.000000 8.939438 11.003309 0.000000 8.996689 12.003310 0.000000 8.996687 13.003310 0.000000 8.946499 14.003310 0.000000 8.996675 15.003310 0.000000 8.996687 16.003311 0.000000 8.883785 17.003311 0.000000 8.966244 18.003311 0.000000 8.841473 19.004966 0.000000 9.995464 -0.004967 0.000000 9.992033 0.996690 0.000000 9.996693 1.996689 0.000000 9.989180 2.996689 0.000000 9.984248 3.996689 0.000000 9.996687 4.996690 0.000000 9.965634 5.996690 0.000000 9.996678 6.996690 0.000000 9.953665 7.996697 0.000000 9.996687 9.000000 0.000000 9.994097 10.000001 0.000000 9.939665 11.003309 0.000000 9.996689 12.003310 0.000000 9.996689 13.003310 0.000000 9.946680 14.003310 0.000000 9.996687 15.003310 0.000000 9.996689 16.003311 0.000000 9.883768 17.003311 0.000000 9.966206 18.003311 0.000000 9.841413 19.004967 0.000000 10.995494 -0.004967 0.000000 10.992244 0.996689 0.000000 10.996693 1.996689 0.000000 10.989273 2.996689 0.000000 10.984461 3.996690 0.000000 10.996695 4.996690 0.000000 10.965661 5.996690 0.000000 10.996695 6.996690 0.000000 10.953624 7.996691 0.000000 10.996693 9.000000 0.000000 10.994097 10.000001 0.000000 10.939802 11.003309 0.000000 10.996690 12.003310 0.000000 10.996690 13.003310 0.000000 10.947269 14.003310 0.000000 10.996690 15.003310 0.000000 10.996690 16.003311 0.000000 10.883733 17.003311 0.000000 10.966146 18.003311 0.000000 10.841408 19.004967 0.000000 11.995496 -0.004967 0.000000 11.992447 0.996689 0.000000 11.996693 1.996689 0.000000 11.989285 2.996689 0.000000 11.984650 3.996689 0.000000 11.996695 4.996690 0.000000 11.965818 5.996690 0.000000 11.996695 6.996690 0.000000 11.953681 7.996691 0.000000 11.996693 9.000000 0.000000 11.994099 10.000001 0.000000 11.939798 11.003309 0.000000 11.996690 12.003310 0.000000 11.996690 13.003310 0.000000 11.947859 14.003310 0.000000 11.996690 15.003310 0.000000 11.996690 16.003311 0.000000 11.883741 17.003311 0.000000 11.966275 18.003311 0.000000 11.841562 19.004967 0.000000 12.995685 -0.004967 0.000000 12.992704 0.996689 0.000000 12.996694 1.996689 0.000000 12.989366 2.996689 0.000000 12.984656 3.996690 0.000000 12.996695 4.996690 0.000000 12.965954 5.996690 0.000000 12.996695 6.996690 0.000000 12.953682 7.996691 0.000000 12.996694 9.000000 0.000000 12.996676 10.000001 0.000000 12.939862 11.003309 0.000000 12.996690 12.003310 0.000000 12.996690 13.003310 0.000000 12.948272 14.003310 0.000000 12.996690 15.003310 0.000000 12.996690 16.003311 0.000000 12.883746 17.003311 0.000000 12.966267 18.003311 0.000000 12.841636 19.004967 0.000000 13.995686 -0.004967 0.000000 13.992913 0.996689 0.000000 13.996694 1.996689 0.000000 13.989511 2.996689 0.000000 13.984909 3.996690 0.000000 13.996695 4.996690 0.000000 13.965942 5.996690 0.000000 13.996695 6.996690 0.000000 13.953617 7.996691 0.000000 13.996694 9.000000 0.000000 13.996686 10.000001 0.000000 13.939979 11.003309 0.000000 13.996690 12.003310 0.000000 13.996690 13.003310 0.000000 13.948488 14.003310 0.000000 13.996690 15.003310 0.000000 13.996690 16.003311 0.000000 13.883738 17.003311 0.000000 13.966008 18.003311 0.000000 13.841830 19.004967 0.000000 14.995687 -0.004967 0.000000 14.992932 0.996689 0.000000 14.996694 1.996689 0.000000 14.989602 2.996689 0.000000 14.985584 3.996690 0.000000 14.996696 4.996690 0.000000 14.965939 5.996690 0.000000 14.996696 6.996690 0.000000 14.953607 7.996691 0.000000 14.996694 9.000000 0.000000 14.996686 10.000001 0.000000 14.940216 11.003309 0.000000 14.996694 12.003310 0.000000 14.996694 13.003310 0.000000 14.948724 14.003310 0.000000 14.996691 15.003310 0.000000 14.996691 16.003311 0.000000 14.883738 17.003311 0.000000 14.965940 18.003311 0.000000 14.842031 19.004967 0.000000 15.995696 -0.004967 0.000000 15.993119 0.996689 0.000000 15.996695 1.996689 0.000000 15.989613 2.996689 0.000000 15.985671 3.996690 0.000000 15.996696 4.996690 0.000000 15.966006 5.996690 0.000000 15.996696 6.996690 0.000000 15.953661 7.996691 0.000000 15.996695 9.000000 0.000000 15.996689 10.000001 0.000000 15.940213 11.003309 0.000000 15.996696 12.003310 0.000000 15.996696 13.003310 0.000000 15.949197 14.003310 0.000000 15.996691 15.003310 0.000000 15.996691 16.003311 0.000000 15.883741 17.003311 0.000000 15.965464 18.003311 0.000000 15.842125 19.004967 0.000000 16.995890 -0.004967 0.000000 16.993130 0.996689 0.000000 16.996695 1.996689 0.000000 16.989692 2.996689 0.000000 16.985687 3.996690 0.000000 16.996696 4.996690 0.000000 16.966015 5.996690 0.000000 16.996696 6.996690 0.000000 16.953640 7.996691
[...]
      <PointData Vectors="vector">
        <DataArray type="Float32" Name="Velocity" NumberOfComponents="3" format="ascii">
-0.015000 -0.009000 0.000000 -0.117001 -0.005992 0.000000 -0.015000 -0.006000 0.000000 -0.297007 -0.006006 0.000000 -0.453076 -0.006002 0.000000 -0.021000 -0.006000 0.000000 -0.477059 -0.006000 0.000000 -0.021000 -0.006000 0.000000 -0.543009 -0.006000 0.000000 -0.021000 0.000000 0.000000 -0.021000 0.000000 0.000000 -0.801022 0.006000 0.000000 -0.015000 0.006000 0.000000 -0.015000 0.006000 0.000000 -0.543012 0.006000 0.000000 -0.015000 0.006000 0.000000 -0.015000 0.006000 0.000000 -0.939021 0.006000 0.000000 -0.561004 0.006000 0.000000 -1.179023 0.009000 0.000000 -0.066000 -0.009000 0.000000 -0.104992 -0.011927 0.000000 -0.018004 -0.006000 0.000000 -0.185938 -0.005985 0.000000 -0.396080 0.000002 0.000000 -0.018000 -0.006000 0.000000 -0.420048 -0.005999 0.000000 -0.018000 -0.006000 0.000000 -0.612000 -0.006194 0.000000 -0.018000 0.000000 0.000000 -0.018000 0.000000 0.000000 -0.786002 0.005996 0.000000 -0.018000 0.006000 0.000000 -0.018000 0.006000 0.000000 -0.534013 0.006000 0.000000 -0.018000 0.006000 0.000000 -0.018000 0.006000 0.000000 -1.014005 0.006000 0.000000 -0.612006 0.006000 0.000000 -1.164031 0.008995 0.000000 -0.060000 -0.009000 0.000000 -0.059998 -0.011835 0.000000 -0.017979 -0.005995 0.000000 -0.246042 -0.005748 0.000000 -0.311941 -0.005972 0.000000 -0.017997 -0.006000 0.000000 -0.425987 -0.006101 0.000000 -0.018000 -0.006000 0.000000 -0.606018 -0.001473 0.000000 -0.018000 0.000000 0.000000 -0.018000 0.000000 0.000000 -0.675048 0.006363 0.000000 -0.018000 0.006000 0.000000 -0.018000 0.006000 0.000000 -0.545988 0.005987 0.000000 -0.018000 0.006000 0.000000 -0.018000 0.006000 0.000000 -1.026022 0.006000 0.000000 -0.588005 0.006041 0.000000 -1.098035 0.009268 0.000000 -0.060000 -0.008751 0.000000 -0.081000 -0.011978 0.000000 -0.011971 -0.011985 0.000000 -0.204041 -0.010830 0.000000 -0.252100 -0.011007 0.000000 -0.017983 -0.000009 0.000000 -0.372071 -0.002936 0.000000 -0.011998 -0.000007 0.000000 -0.587995 -0.001102 0.000000 -0.018000 -0.000000 0.000000 -0.018000 -0.000000 0.000000 -0.726008 0.005007 0.000000 -0.017990 0.006000 0.000000 -0.017966 0.006000 0.000000 -0.534064 0.006029 0.000000 -0.017967 0.006000 0.000000 -0.018003 0.012000 0.000000 -1.002005 0.005996 0.000000 -0.627009 0.003679 0.000000 -1.176027 0.004334 0.000000 -0.053987 -0.012912 0.000000 -0.107988 -0.009131 0.000000 -0.011985 -0.011912 0.000000 -0.257994 -0.010378 0.000000 -0.245947 -0.002761 0.000000 -0.012013 0.000042 0.000000 -0.488959 0.001353 0.000000 -0.011909 0.012027 0.000000 -0.663036 0.017942 0.000000 -0.012000 0.000032 0.000000 -0.018000 0.000039 0.000000 -0.693025 -0.000970 0.000000 -0.012000 0.006000 0.000000 -0.012000 0.006000 0.000000 -0.534000 0.005984 0.000000 -0.012000 0.006000 0.000000 -0.012000 0.006000 0.000000 -1.020020 0.006010 0.000000 -0.594012 0.011271 0.000000 -1.122099 0.025365 0.000000 -0.054000 -0.035604 0.000000 -0.107999 -0.033599 0.000000 -0.006000 -0.018105 0.000000 -0.233949 -0.045554 0.000000 -0.215977 -0.023601 0.000000 -0.017593 -0.030091 0.000000 -0.466037 -0.034818 0.000000 -0.009724 -0.036043 0.000000 -0.543049 -0.047430 0.000000 -0.012000 -0.006065 0.000000 -0.018000 -0.000093 0.000000 -0.606198 -0.014871 0.000000 -0.012000 0.006000 0.000000 -0.012000 0.006000 0.000000 -0.510033 0.005999 0.000000 -0.012000 0.006000 0.000000 -0.012000 0.006000 0.000000 -0.977987 0.005986 0.000000 -0.639038 -0.001010 0.000000 -0.999124 -0.002725 0.000000 -0.054014 -0.012687 0.000000 -0.108013 -0.008542 0.000000 -0.006000 -0.011922 0.000000 -0.216085 -0.009860 0.000000 -0.192079 0.002725 0.000000 -0.006012 -0.005929 0.000000 -0.588237 0.002759 0.000000 -0.017822 0.012050 0.000000 -0.582225 0.018050 0.000000 -0.011987 0.006033 0.000000 -0.012003 0.000054 0.000000 -0.720655 0.013917 0.000000 -0.011999 0.006000 0.000000 -0.012000 0.006000 0.000000 -0.497978 0.005947 0.000000 -0.012000 0.006000 0.000000 -0.012000 0.006000 0.000000 -0.960030 0.006016 0.000000 -0.627043 0.014639 0.000000 -1.217977 0.027130 0.000000 -0.047999 -0.015054 0.000000 -0.102000 -0.012400 0.000000 -0.006000 -0.011997 0.000000 -0.185964 -0.011482 0.000000 -0.192011 -0.009539 0.000000 -0.006018 -0.000009 0.000000 -0.582034 0.002346 0.000000 -0.018000 0.000018 0.000000 -0.506881 0.002437 0.000000 -0.006000 -0.000000 0.000000 -0.012000 -0.000000 0.000000 -0.665285 0.001704 0.000000 -0.011973 0.006000 0.000000 -0.011959 0.006000 0.000000 -0.498091 0.006116 0.000000 -0.011955 0.006000 0.000000 -0.012002 0.012000 0.000000 -1.035037 0.005990 0.000000 -0.525119 0.001142 0.000000 -1.179014 0.001823 0.000000 -0.048001 -0.008386 0.000000 -0.102000 -0.011842 0.000000 -0.006000 -0.011980 0.000000 -0.144030 -0.010988 0.000000 -0.150009 -0.010252 0.000000 -0.017901 0.000000 0.000000 -0.480208 -0.004553 0.000000 -0.017968 -0.000031 0.000000 -0.597343 -0.001918 0.000000 -0.006000 0.000000 0.000000 -0.012000 0.000000 0.000000 -0.690198 0.006876 0.000000 -0.006000 0.006000 0.000000 -0.006000 0.006000 0.000000 -0.510010 0.005936 0.000000 -0.006000 0.006000 0.000000 -0.006000 0.006000 0.000000 -0.957021 0.006002 0.000000 -0.497975 0.006242 0.000000 -1.092148 0.009855 0.000000 -0.042000 -0.009000 0.000000 -0.102001 -0.011198 0.000000 -0.005996 -0.006000 0.000000 -0.186013 -0.005605 0.000000 -0.180038 -0.005985 0.000000 -0.005982 -0.000000 0.000000 -0.533863 -0.006048 0.000000 -0.006000 -0.006005 0.000000 -0.623560 -0.010731 0.000000 -0.006000 0.000000 0.000000 -0.012000 0.000000 0.000000 -0.642177 0.005978 0.000000 -0.006000 0.006000 0.000000 -0.006000 0.006000 0.000000 -0.498011 0.006002 0.000000 -0.006000 0.006000 0.000000 -0.006000 0.006000 0.000000 -1.040999 0.006000 0.000000 -0.443556 0.005996 0.000000 -1.089069 0.008953 0.000000 -0.036001 -0.009000 0.000000 -0.101999 -0.005957 0.000000 -0.006000 -0.006000 0.000000 -0.191956 -0.006009 0.000000 -0.221961 -0.006007 0.000000 -0.006000 -0.006000 0.000000 -0.479985 -0.006000 0.000000 -0.006000 -0.006000 0.000000 -0.591006 -0.005787 0.000000 -0.006000 -0.000000 0.000000 -0.012000 0.000000 0.000000 -0.617768 0.006000 0.000000 -0.006000 0.006000 0.000000 -0.006000 0.006000 0.000000 -0.486010 0.006000 0.000000 -0.006000 0.006000 0.000000 -0.006000 0.006000 0.000000 -1.008017 0.006000 0.000000 -0.514707 0.006000 0.000000 -1.181837 0.009002 0.000000 -0.035999 -0.009000 0.000000 -0.096000 -0.006000 0.000000 -0.006000 -0.006000 0.000000 -0.101930 -0.006000 0.000000 -0.108005 -0.006000 0.000000 -0.006000 -0.006000 0.000000 -0.498212 -0.006000 0.000000 -0.006000 -0.006000 0.000000 -0.534312 -0.006008 0.000000 -0.006000 0.000000 0.000000 -0.012000 0.000000 0.000000 -0.662996 0.006000 0.000000 -0.006000 0.006000 0.000000 -0.006000 0.006000 0.000000 -0.473979 0.006000 0.000000 -0.006000 0.006000 0.000000 -0.006000 0.006000 0.000000 -0.999030 0.006000 0.000000 -0.567279 0.006000 0.000000 -1.011090 0.009000 0.000000 -0.036001 -0.009000 0.000000 -0.090000 -0.006000 0.000000 -0.006000 -0.006000 0.000000 -0.114018 -0.006000 0.000000 -0.216000 -0.006000 0.000000 -0.006000 -0.006000 0.000000 -0.534086 -0.006000 0.000000 -0.006000 -0.006000 0.000000 -0.635772 -0.006000 0.000000 -0.006000 0.000000 0.000000 -0.012000 0.000000 0.000000 -0.651500 0.006000 0.000000 -0.006000 0.006000 0.000000 -0.006000 0.006000 0.000000 -0.468015 0.006000 0.000000 -0.006000 0.006000 0.000000 -0.006000 0.006000 0.000000 -1.050029 0.006000 0.000000 -0.476044 0.006000 0.000000 -1.086090 0.009000 0.000000 -0.029999 -0.009000 0.000000 -0.084001 -0.006000 0.000000 -0.006000 -0.006000 0.000000 -0.102009 -0.006000 0.000000 -0.191981 -0.006000 0.000000 -0.006000 -0.006000 0.000000 -0.543264 -0.006000 0.000000 -0.006000 -0.006000 0.000000 -0.645145 -0.006000 0.000000 -0.006000 0.000000 0.000000 -0.006000 0.000000 0.000000 -0.629788 0.006000 0.000000 -0.006000 0.006000 0.000000 -0.006000 0.006000 0.000000 -0.450043 0.006000 0.000000 -0.006000 0.006000 0.000000 -0.006000 0.006000 0.000000 -1.005075 0.006000 0.000000 -0.811577 0.006000 0.000000 -1.116550 0.009000 0.000000 -0.030000 -0.009000 0.000000 -0.077999 -0.006000 0.000000 -0.006000 -0.006000 0.000000 -0.137984 -0.006000 0.000000 -0.161996 -0.006000 0.000000 -0.006000 -0.006000 0.000000 -0.461748 -0.006000 0.000000 -0.006000 -0.006000 0.000000 -0.533997 -0.006000 0.000000 -0.006000 0.000000 0.000000 -0.006000 0.000000 0.000000 -0.587488 0.006000 0.000000 -0.006000 0.006000 0.000000 -0.006000 0.006000 0.000000 -0.443922 0.006000 0.000000 -0.006000 0.006000 0.000000 -0.006000 0.006000 0.000000 -1.061934 0.006000 0.000000 -0.701017 0.006000 0.000000 -1.031894 0.009000 0.000000 -0.030000 -0.009000 0.000000 -0.078000 -0.006000 0.000000 -0.006000 -0.006000 0.000000 -0.107993 -0.006000 0.000000 -0.132000 -0.006000 0.000000 -0.006000 -0.006000 0.000000 -0.524880 -0.006000 0.000000 -0.006000 -0.006000 0.000000 -0.669028 -0.006000 0.000000 -0.006000 0.000000 0.000000 -0.006000 0.000000 0.000000 -0.573047 0.006000 0.000000 -0.006000 0.006000 0.000000 -0.006000 0.006000 0.000000 -0.438007 0.006000 0.000000 -0.006000 0.006000 0.000000 -0.006000 0.006000 0.000000 -0.927108 0.006000 0.000000 -0.564488 0.006000 0.000000 -1.110336 0.009000 0.000000 -0.030000 -0.009000 0.000000 -0.072001 -0.006000 0.000000 -0.006000 -0.006000 0.000000 -0.060007 -0.006000 0.000000 -0.144000 -0.006000 0.000000 -0.006000 -0.006000 0.000000 -0.558111 -0.006000 0.000000 -0.006000 -0.006000 0.000000 -0.471131 -0.006000 0.000000 -0.006000 0.000000 0.000000 -0.006000 0.000000 0.000000 -0.553072 0.006000 0.000000 -0.006000 0.006000 0.000000 -0.006000 0.006000 0.000000 -0.426170 0.006000 0.000000 -0.006000 0.006000 0.000000 -0.006000 0.006000 0.000000 -1.023175 0.006000 0.000000 -0.454955 0.006000 0.000000 -1.043803 0.009000 0.000000 -0.024000 -0.009000 0.000000 -0.071999 -0.006000 0.000000 -0.006000 -0.006000 0.000000 0.018010 -0.006000 0.000000 -0.135087 -0.006000 0.000000 -0.006000 -0.006000 0.000000 -0.566923 -0.006000 0.000000 -0.006000 -0.006000 0.000000 -0.648232 -0.006000 0.000000 -0.006000 0.000000 0.000000 -0.006000 0.000000 0.000000 -0.551723 0.006000 0.000000 -0.006000 0.006000 0.000000 -0.006000 0.006000 0.000000 -0.425951 0.006000 0.000000 -0.006000 0.006000 0.000000 -0.006000 0.006000 0.000000 -1.005147 0.006000 0.000000 -0.516912 0.006000 0.000000 -1.068063 0.009000 0.000000 -0.024000 -0.009000 0.000000 -0.072001 -0.006000 0.000000 -0.006000 -0.006000 0.000000 -0.023992 -0.006000 0.000000 -0.326922 -0.006000 0.000000 -0.006000 -0.006000 0.000000 -0.630261 -0.006000 0.000000 -0.006000 -0.006000 0.000000 -0.549273 -0.006000 0.000000 -0.006000 0.000000 0.000000 -0.006000 0.000000 0.000000 -0.726009 0.006000 0.000000 -0.006000 0.006000 0.000000 -0.006000 0.006000 0.000000 -0.408018 0.006000 0.000000 -0.006000 0.006000 0.000000 -0.006000 0.006000 0.000000 -0.963059 0.006000 0.000000 -0.537986 0.006000 0.000000 -1.032406 0.009000 0.000000 -0.024000 -0.009000 0.000000 -0.072000 -0.006000 0.000000 -0.006000 -0.006000 0.000000 -0.075017 -0.006000 0.000000 -0.249028 -0.006000 0.000000 -0.006000 -0.006000 0.000000 -0.515839 -0.006000 0.000000 -0.006000 -0.006000 0.000000 -0.585246 -0.006000 0.000000 -0.006000 0.000000 0.000000 -0.006000 0.000000 0.000000 -0.756705 0.006000 0.000000 -0.006000 0.006000 0.000000 -0.006000 0.006000 0.000000 -0.408042 0.006000 0.000000 -0.006000 0.006000 0.000000 -0.006000 0.006000 0.000000 -0.938455 0.006000 0.000000 -0.417306 0.006000 0.000000 -1.042668 0.009000 0.000000 -0.024000 -0.009000 0.000000 -0.072002 -0.006000 0.000000 -0.006000 -0.006000 0.000000 -0.047999 -0.006000 0.000000 -0.260987 -0.006000 0.000000 -0.006000 -0.006000 0.000000 -0.510435 -0.006000 0.000000 -0.006000 -0.006000 0.000000 -0.606832 -0.006000 0.000000 -0.006000 0.000000 0.000000 -0.006000 0.000000 0.000000 -0.701083 0.006000 0.000000 -0.006000 0.006000 0.000000 -0.006000 0.006000 0.000000 -0.402048 0.006000 0.000000 -0.006000 0.006000 0.000000 -0.006000 0.006000 0.000000 -0.969000 0.006000 0.000000 -0.435004 0.006000 0.000000 -0.941981 0.009000 0.000000 -0.024000 -0.009000 0.000000 -0.072002 -0.006000 0.000000 -0.006000 -0.006000 0.000000 -0.087008 -0.006000 0.000000 -0.363162 -0.006000 0.000000 -0.006000 -0.006000 0.000000 -0.504111 -0.006000 0.000000 -0.006000 -0.006000 0.000000 -0.622721 -0.006000 0.000000 -0.006000 0.000000 0.000000 -0.006000 0.000000 0.000000 -0.566028 0.006000 0.000000 -0.006000 0.006000 0.000000 -0.000000 0.006000 0.000000 -0.389972 0.006000 0.000000 -0.006000 0.006000 0.000000 -0.000000 0.006000 0.000000 -0.970181 0.006000 0.000000 -0.415436 0.006000 0.000000 -0.986656 0.009000 0.000000 -0.024000 -0.009000 0.000000 -0.065996 -0.006000 0.000000 -0.006000 -0.006000 0.000000 -0.126004 -0.006000 0.000000 -0.332890 -0.006000 0.000000 -0.006000 -0.006000 0.000000 -0.527774 -0.006000 0.000000 -0.006000 -0.006000 0.000000 -0.690736 -0.006000 0.000000 -0.006000 0.000000 0.000000 -0.006000 0.000000 0.000000 -0.215594 0.006000 0.000000 -0.000000 0.006000 0.000000 -0.000000 0.006000 0.000000 -0.384110 0.006000 0.000000 0.000000 0.006000 0.000000 0.000000 0.006000 0.000000 -1.026138 0.006001 0.000000 -0.341632 0.006000 0.000000 -0.912884 0.009001 0.000000 -0.018000 -0.009000 0.000000 -0.048004 -0.006000 0.000000 -0.006000 -0.006000 0.000000 -0.102034 -0.006000 0.000000 -0.376283 -0.006000 0.000000 -0.006000 -0.006000 0.000000 -0.414227 -0.006000 0.000000 -0.006000 -0.006000 0.000000 -0.594149 -0.005997 0.000000 -0.006000 0.000000 0.000000 -0.006000 0.000000 0.000000 -0.408094 0.005992 0.000000 -0.000000 0.006000 0.000000 -0.000000 0.006000 0.000000 -0.378025 0.006000 0.000000 0.000000 0.006000 0.000000 0.000000 0.006000 0.000000 -0.966314 0.005984 0.000000 -0.307507 0.005998 0.000000 -0.942145 0.008960 0.000000 -0.018000 -0.009000 0.000000 -0.048002 -0.006000 0.000000 -0.006000 -0.006000 0.000000 -0.078144 -0.006000 0.000000 -0.311226 -0.006021 0.000000 -0.006000 -0.006000 0.000000 -0.497939 -0.005988 0.000000 -0.006000 -0.006000 0.000000 -0.774811 -0.006073 0.000000 -0.006000 0.000000 0.000000 -0.006000 0.000000 0.000000 -0.372646 0.006175 0.000000 -0.000000 0.006000 0.000000 -0.000000 0.006000 0.000000 -0.510211 0.006000 0.000000 -0.000000 0.006000 0.000000 0.000000 0.006000 0.000000 -0.966968 0.006376 0.000000 -0.112504 0.006079 0.000000 -0.893492 0.009787 0.000000 -0.018000 -0.009000 0.000000 -0.030005 -0.011929 0.000000 -0.005962 -0.012000 0.000000 0.065930 -0.006018 0.000000 -0.283486 -0.006175 0.000000 -0.005940 0.006000 0.000000 -0.613025 -0.006773 0.000000 -0.000000 -0.006000 0.000000 -0.527722 -0.005157 0.000000 -0.006000 0.000000 0.000000 -0.006000 0.000000 0.000000 -0.207150 0.003753 0.000000 -0.000000 0.006000 0.000000 -0.000000 0.006000 0.000000 -0.329986 0.005960 0.000000 0.000000 0.006000 0.000000 -0.000000 0.006000 0.000000 -0.998799 -0.001843 0.000000 0.364116 0.004107 0.000000 -0.831508 -0.001154 0.000000 -0.012000 -0.009000 0.000000 -0.030019 -0.017045 0.000000 0.000026 -0.006000 0.000000 0.104838 -0.011103 0.000000 -0.242569 0.001067 0.000000 -0.005868 0.000000 0.000000 -0.540965 0.003421 0.000000 -0.000000 -0.006002 0.000000 -0.607008 -0.005874 0.000000 -0.006000 0.000000 0.000000 -0.006000 0.000000 0.000000 -0.468270 0.023708 0.000000 -0.000000 0.006000 0.000000 -0.000000 0.006000 0.000000 -0.312592 0.007716 0.000000 0.006000 0.005997 0.000000 -0.000000 0.006000 0.000000 -0.545961 0.087422 0.000000 0.323495 0.037696 0.000000 -0.652308 0.085002 0.000000 -0.012006 -0.009062 0.000000 -0.030001 -0.013116 0.000000 0.000023 -0.017999 0.000000 0.107894 -0.011120 0.000000 -0.255820 -0.032498 0.000000 0.000699 -0.029993 0.000000 -0.507759 -0.061953 0.000000 0.001037 -0.036021 0.000000 -0.605259 -0.071494 0.000000 -0.006000 0.000000 0.000000 -0.000000 0.000000 0.000000 -1.021191 -0.093668 0.000000 -0.000001 -0.126002 0.000000 0.014809 -0.107835 0.000000 -0.311616 -0.185300 0.000000 0.020677 -0.150303 0.000000 0.015021 -0.037715 0.000000 2.203643 -0.010295 0.000000 1.001489 0.007581 0.000000 1.156595 -0.213984 0.000000 0.043789 0.048334 0.000000 -0.006808 0.041980 0.000000 0.006097 0.065999 0.000000 0.146772 0.184208 0.000000 -0.343272 0.275679 0.000000 0.001373 0.239995 0.000000 -2.012852 0.744506 0.000000 0.014967 0.665848 0.000000 -2.862830 0.724274 0.000000 0.023891 0.539407 0.000000 0.000892 0.408006 0.000000 -0.740394 0.269738 0.000000 0.035075 0.350289 0.000000 0.017378 0.213231 0.000000 -0.279350 0.284475 0.000000 0.018659 0.293811 0.000000 0.078142 0.259115 0.000000 -0.736075 0.528266 0.000000 1.107582 1.418088 0.000000 3.761110 1.422283 0.000000 0.258263 -1.378423 0.000000 0.119668 -1.205934 0.000000 0.000685 -1.236044 0.000000 0.175185 -1.132370 0.000000 -0.904369 -1.058834 0.000000 0.190705 -1.526238 0.000000 -1.060330 -1.641290 0.000000 0.356871 -1.394617 0.000000 -1.123809 -1.848611 0.000000 0.257163 -2.042337 0.000000 0.420307 -2.061382 0.000000 -1.005344 -2.366307 0.000000 0.316734 -2.197269 0.000000 0.192293 -1.805587 0.000000 -0.617501 -1.871985 0.000000 -0.861671 -1.251564 0.000000 0.844646 -1.422666 0.000000 0.043109 -1.479258 0.000000 0.959929 2.986133 0.000000 2.513862 1.351019 0.000000 -0.010584 -9.711135 0.000000 -0.038460 -9.610739 0.000000 -0.543003 -8.786002 0.000000 0.337802 -5.604963 0.000000 -0.019349 -3.126441 0.000000 -1.284241 -5.855353 0.000000 2.666322 -1.953428 0.000000 -1.026156 -0.230845 0.000000 3.859103 -4.867572 0.000000 -1.303778 -1.816976 0.000000 1.919843 0.313853 0.000000 0.800672 0.028648 0.000000 -2.500755 0.533962 0.000000 2.754832 2.103749 0.000000 0.088531 2.704563 0.000000 -2.344604 4.341130 0.000000 2.142073 1.925918 0.000000 0.287796 1.085760 0.000000 2.407158 -1.212632 0.000000 6.992868 -2.342334 0.000000 -0.015617 -11.463270 0.000000 -0.044273 -11.359107 0.000000 -0.413775 -8.757805 0.000000 0.483788 -4.683868 0.000000 -0.148964 -10.024190 0.000000 -0.951611 -4.143984 0.000000 1.632899 -5.919016 0.000000 4.295013 3.916329 0.000000 1.388564 -2.645900 0.000000 -3.491938 -1.605023 0.000000 0.657298 0.734554 0.000000 4.338734 -2.566520 0.000000 1.620411 1.200338 0.000000 0.495606 1.781964 0.000000 -0.305253 -2.888515 0.000000 -3.942776 1.753649 0.000000 2.721831 4.887448 0.000000 5.859104 5.558466 0.000000 1.378460 0.486156 0.000000 -1.057133 -2.058655 0.000000 -0.019696 -11.205235 0.000000 -0.195384 -11.161859 0.000000 -0.300282 -8.665225 0.000000 0.505812 -4.613554 0.000000 -0.101200 -9.302191 0.000000 -1.054328 -2.915212 0.000000 2.517349 -6.499397 0.000000 -0.760210 -5.106625 0.000000 1.912446 -3.129170 0.000000 -0.528547 -6.259573 0.000000 -0.856106 -2.547569 0.000000 4.175783 -4.268898 0.000000 -2.427524 -6.135271 0.000000 1.997068 -7.803735 0.000000 -2.575380 -9.920156 0.000000 -0.223707 -7.773024 0.000000 -1.689592 -9.183939 0.000000 -1.462236 -6.011541 0.000000 -2.555798 -23.545809 0.000000 4.930925 -18.712451 0.000000 -0.014321 -11.235478 0.000000 0.141558 -11.080378 0.000000 -0.421632 -8.934357 0.000000 0.510037 -4.383823 0.000000 0.174462 -9.147865 0.000000 -1.126645 -3.191275 0.000000 1.663417 -4.433051 0.000000 -0.945494 -5.584283 0.000000 2.347503 -4.138605 0.000000 -1.443905 -5.170736 0.000000 -1.199433 -3.524519 0.000000 3.292361 -10.948227 0.000000 5.638013 -3.744823 0.000000 2.530290 -8.853111 0.000000 -1.342653 -6.727327 0.000000 -0.913069 -6.513428 0.000000 -1.204086 -6.225099 0.000000 -0.929545 -13.024282 0.000000 11.194989 -17.678516 0.000000 10.696951 -1.941505 0.000000 -0.010264 -11.391358 0.000000 0.056677 -11.287426 0.000000 -0.337786 -8.273912 0.000000 0.649346 -4.719059 0.000000 0.120031 -9.641107 0.000000 -1.079907 -3.282889 0.000000 2.537130 -3.886233 0.000000 -1.888560 -5.961976 0.000000 1.925370 -1.698218 0.000000 -3.164690 -6.501866 0.000000 -0.384990 -3.644835 0.000000 4.084807 -8.496955 0.000000 1.680940 -2.469278 0.000000 0.076365 -7.190724 0.000000 3.808264 -6.164538 0.000000 -3.280051 -5.284600 0.000000 -3.380784 -5.248742 0.000000 -5.156298 -5.008220 0.000000 5.250440 -1.397752 0.000000 6.358198 -23.577211 0.000000 