<VTKFile type="UnstructuredGrid" version="0.1" byte_order="LittleEndian">
  <UnstructuredGrid>
    <Piece NumberOfPoints="2000" NumberOfCells="0">
      <Points>
        <DataArray name="Position" type="Float32" NumberOfComponents="3" format="ascii">
-0.005844 -0.003509 0.000000 -0.005844 0.997661 0.000000 -0.005844 1.997661 0.000000 -0.005844 2.997661 0.000000 -0.008016 3.997662 0.000000 -0.008150 4.997662 0.000000 -0.008135 5.997662 0.000000 -0.008171 6.997662 0.000000 -0.005835 7.997663 0.000000 -0.008170 9.000000 0.000000 -0.005831 10.000001 0.000000 -0.005830 11.002337 0.000000 -0.005832 12.002338 0.000000 -0.005832 13.002338 0.000000 -0.005832 14.002338 0.000000 -0.005826 15.002338 0.000000 -0.005826 16.002339 0.000000 -0.013326 17.002339 0.000000 -0.005826 18.002339 0.000000 -0.029702 19.003509 0.000000 0.997658 -0.003509 0.000000 0.997658 0.997661 0.000000 0.994726 1.997661 0.000000 0.994462 2.997661 0.000000 0.994448 3.997662 0.000000 0.993026 4.997662 0.000000 0.993096 5.997662 0.000000 0.994444 6.997662 0.000000 0.994427 7.997663 0.000000 0.994695 9.000000 0.000000 0.994393 10.000001 0.000000 0.994649 11.002337 0.000000 0.996707 12.002338 0.000000 0.997652 13.002338 0.000000 0.997586 14.002338 0.000000 0.997649 15.002338 0.000000 0.997649 16.002339 0.000000 0.986754 17.002339 0.000000 0.994454 18.002339 0.000000 0.970485 19.003509 0.000000 1.997661 -0.003509 0.000000 1.997661 0.997661 0.000000 1.997657 1.997661 0.000000 1.994466 2.997661 0.000000 1.994483 3.997662 0.000000 1.994894 4.997662 0.000000 1.994751 5.997662 0.000000 1.994474 6.997662 0.000000 1.994428 7.997663 0.000000 1.994716 9.000000 0.000000 1.994418 10.000001 0.000000 1.994679 11.002337 0.000000 1.996729 12.002338 0.000000 1.997661 13.002338 0.000000 1.997586 14.002338 0.000000 1.997661 15.002338 0.000000 1.997661 16.002339 0.000000 1.986872 17.002339 0.000000 1.994464 18.002339 0.000000 1.970653 19.003509 0.000000 2.997661 -0.003509 0.000000 2.997661 0.997061 0.000000 2.997662 1.997512 0.000000 2.994470 2.997656 0.000000 2.994501 3.997659 0.000000 2.994905 4.997661 0.000000 2.995312 5.997663 0.000000 2.995327 6.997814 0.000000 2.994430 7.998266 0.000000 2.994920 9.000000 0.000000 2.994422 10.000001 0.000000 2.994701 11.002337 0.000000 2.996729 12.002338 0.000000 2.997661 13.002338 0.000000 2.997588 14.002338 0.000000 2.997661 15.002338 0.000000 2.997661 16.002339 0.000000 2.986913 17.002339 0.000000 2.994481 18.002339 0.000000 2.970569 19.003495 0.000000 3.997661 -0.004232 0.000000 3.997661 0.996235 0.000000 3.997662 1.996392 0.000000 3.994538 2.996477 0.000000 3.995243 3.996852 0.000000 3.995318 4.998862 0.000000 3.995328 5.998948 0.000000 3.995331 6.999097 0.000000 3.994430 7.999194 0.000000 3.995327 9.000004 0.000000 3.994441 10.000010 0.000000 3.994724 11.000905 0.000000 3.997183 12.002338 0.000000 3.997661 13.002338 0.000000 3.997592 14.002339 0.000000 3.997661 15.002339 0.000000 3.997661 16.002339 0.000000 3.986977 17.002340 0.000000 3.994488 18.003239 0.000000 3.970714 19.004081 0.000000 4.997662 -0.012770 0.000000 4.997662 0.991065 0.000000 4.997660 1.992969 0.000000 4.997435 2.994907 0.000000 4.996468 3.995304 0.000000 4.995330 4.995321 0.000000 4.995330 5.995330 0.000000 4.995332 6.995333 0.000000 4.994467 7.996058 0.000000 4.995329 8.997651 0.000000 4.994443 9.999234 0.000000 4.994724 10.999978 0.000000 4.997183 12.002338 0.000000 4.997662 13.002338 0.000000 4.997592 14.002338 0.000000 4.997662 15.002338 0.000000 4.997662 16.002339 0.000000 4.987080 17.002339 0.000000 4.994509 18.002339 0.000000 4.970709 19.003486 0.000000 5.997663 -0.005837 0.000000 5.997663 0.995362 0.000000 5.997663 1.996131 0.000000 5.997663 2.996475 0.000000 5.996626 3.997666 0.000000 5.995333 4.998482 0.000000 5.995361 5.998867 0.000000 5.996842 6.999200 0.000000 5.996042 7.999984 0.000000 5.995331 9.000008 0.000000 5.994458 10.000974 0.000000 5.994784 11.001542 0.000000 5.997191 12.002338 0.000000 5.997662 13.002338 0.000000 5.997592 14.002339 0.000000 5.997662 15.002339 0.000000 5.997662 16.002339 0.000000 5.987154 17.002340 0.000000 5.994510 18.003310 0.000000 5.970813 19.003923 0.000000 6.997663 -0.004282 0.000000 6.997663 0.996194 0.000000 6.997663 1.996877 0.000000 6.997663 2.997050 0.000000 6.997231 3.997601 0.000000 6.995751 4.997720 0.000000 6.995370 5.998275 0.000000 6.997652 6.999123 0.000000 6.996048 7.999210 0.000000 6.997652 8.999999 0.000000 6.996026 10.000001 0.000000 6.996153 11.002337 0.000000 6.997201 12.002338 0.000000 6.997662 13.002338 0.000000 6.997593 14.002338 0.000000 6.997662 15.002338 0.000000 6.997662 16.002339 0.000000 6.987157 17.002339 0.000000 6.994510 18.002339 0.000000 6.970851 19.003503 0.000000 7.997663 -0.003509 0.000000 7.997663 0.997394 0.000000 7.997663 1.997660 0.000000 7.997663 2.997661 0.000000 7.997665 3.997661 0.000000 7.997652 4.997661 0.000000 7.997240 5.997662 0.000000 7.997657 6.997664 0.000000 7.996051 7.997929 0.000000 7.997658 8.999999 0.000000 7.996034 10.000001 0.000000 7.996164 11.002337 0.000000 7.997650 12.002338 0.000000 7.997662 13.002338 0.000000 7.997593 14.002338 0.000000 7.997662 15.002338 0.000000 7.997662 16.002339 0.000000 7.987160 17.002339 0.000000 7.994514 18.002339 0.000000 7.970968 19.003509 0.000000 8.997663 -0.003509 0.000000 8.997663 0.997661 0.000000 8.997663 1.997661 0.000000 8.997663 2.997661 0.000000 8.997665 3.997662 0.000000 8.997659 4.997662 0.000000 8.997651 5.997662 0.000000 8.997658 6.997662 0.000000 8.996055 7.997663 0.000000 8.997659 9.000000 0.000000 8.996039 10.000001 0.000000 8.996168 11.002337 0.000000 8.997661 12.002338 0.000000 8.997663 13.002338 0.000000 8.997594 14.002338 0.000000 8.997663 15.002338 0.000000 8.997663 16.002339 0.000000 8.987172 17.002339 0.000000 8.994544 18.002339 0.000000 8.970994 19.003509 0.000000 9.997664 -0.003509 0.000000 9.997664 0.997661 0.000000 9.997664 1.997661 0.000000 9.997664 2.997661 0.000000 9.997665 3.997662 0.000000 9.997660 4.997662 0.000000 9.997659 5.997662 0.000000 9.997659 6.997662 0.000000 9.997650 7.997663 0.000000 9.997659 9.000000 0.000000 9.996041 10.000001 0.000000 9.996170 11.002337 0.000000 9.997661 12.002338 0.000000 9.997663 13.002338 0.000000 9.997604 14.002338 0.000000 9.997663 15.002338 0.000000 9.997663 16.002339 0.000000 9.987208 17.002339 0.000000 9.996062 18.002339 0.000000 9.971101 19.003509 0.000000 10.997664 -0.003509 0.000000 10.997664 0.997661 0.000000 10.997664 1.997661 0.000000 10.997664 2.997661 0.000000 10.997666 3.997662 0.000000 10.997667 4.997662 0.000000 10.997667 5.997662 0.000000 10.997665 6.997662 0.000000 10.997665 7.997663 0.000000 10.997665 9.000000 0.000000 10.996041 10.000001 0.000000 10.996179 11.002337 0.000000 10.997662 12.002338 0.000000 10.997663 13.002338 0.000000 10.997604 14.002338 0.000000 10.997663 15.002338 0.000000 10.997663 16.002339 0.000000 10.987224 17.002339 0.000000 10.996063 18.002339 0.000000 10.971075 19.003509 0.000000 11.997664 -0.003509 0.000000 11.997664 0.997661 0.000000 11.997664 1.997661 0.000000 11.997664 2.997661 0.000000 11.997666 3.997662 0.000000 11.997667 4.997662 0.000000 11.997667 5.997662 0.000000 11.997665 6.997662 0.000000 11.997665 7.997663 0.000000 11.997665 9.000000 0.000000 11.996043 10.000001 0.000000 11.996181 11.002337 0.000000 11.997662 12.002338 0.000000 11.997664 13.002338 0.000000 11.997604 14.002338 0.000000 11.997664 15.002338 0.000000 11.997664 16.002339 0.000000 11.987223 17.002339 0.000000 11.996070 18.002339 0.000000 11.971191 19.003509 0.000000 12.997665 -0.003509 0.000000 12.997665 0.997661 0.000000 12.997665 1.997661 0.000000 12.997665 2.997661 0.000000 12.997666 3.997662 0.000000 12.997667 4.997662 0.000000 12.997667 5.997662 0.000000 12.997666 6.997662 0.000000 12.997666 7.997663 0.000000 12.997666 9.000000 0.000000 12.997648 10.000001 0.000000 12.997646 11.002337 0.000000 12.997662 12.002338 0.000000 12.997664 13.002338 0.000000 12.997605 14.002338 0.000000 12.997664 15.002338 0.000000 12.997664 16.002339 0.000000 12.987176 17.002339 0.000000 12.996072 18.002339 0.000000 12.971179 19.003509 0.000000 13.997665 -0.003509 0.000000 13.997665 0.997661 0.000000 13.997665 1.997661 0.000000 13.997665 2.997661 0.000000 13.997667 3.997662 0.000000 13.997667 4.997662 0.000000 13.997667 5.997662 0.000000 13.997666 6.997662 0.000000 13.997666 7.997663 0.000000 13.997666 9.000000 0.000000 13.997658 10.000001 0.000000 13.997656 11.002337 0.000000 13.997662 12.002338 0.000000 13.997664 13.002338 0.000000 13.997606 14.002338 0.000000 13.997664 15.002338 0.000000 13.997664 16.002339 0.000000 13.987170 17.002339 0.000000 13.996074 18.002339 0.000000 13.971157 19.003509 0.000000 14.997665 -0.003509 0.000000 14.997665 0.997661 0.000000 14.997665 1.997661 0.000000 14.997665 2.997661 0.000000 14.997667 3.997662 0.000000 14.997668 4.997662 0.000000 14.997668 5.997662 0.000000 14.997666 6.997662 0.000000 14.997666 7.997663 0.000000 14.997666 9.000000 0.000000 14.997658 10.000001 0.000000 14.997658 11.002337 0.000000 14.997666 12.002338 0.000000 14.997665 13.002338 0.000000 14.997607 14.002338 0.000000 14.997665 15.002338 0.000000 14.997665 16.002339 0.000000 14.987219 17.002339 0.000000 14.996076 18.002339 0.000000 14.971206 19.003509 0.000000 15.997665 -0.003509 0.000000 15.997665 0.997661 0.000000 15.997665 1.997661 0.000000 15.997665 2.997661 0.000000 15.997667 3.997662 0.000000 15.997668 4.997662 0.000000 15.997668 5.997662 0.000000 15.997667 6.997662 0.000000 15.997667 7.997663 0.000000 15.997667 9.000000 0.000000 15.997661 10.000001 0.000000 15.997661 11.002337 0.000000 15.997668 12.002338 0.000000 15.997666 13.002338 0.000000 15.997610 14.002338 0.000000 15.997665 15.002338 0.000000 15.997665 16.002339 0.000000 15.987203 17.002339 0.000000 15.996101 18.002339 0.000000 15.971145 19.003509 0.000000 16.997666 -0.003509 0.000000 16.997666 0.997661 0.000000 16.997666 1.997661 0.000000 16.997666 2.997661 0.000000 16.997668 3.997662 0.000000 16.997668 4.997662 0.000000 16.997668 5.997662 0.000000 16.997667 6.997662 0.000000 16.997667 7.997663
[...]
      <PointData Vectors="vector">
        <DataArray type="Float32" Name="Velocity" NumberOfComponents="3" format="ascii">
-0.015000 -0.009000 0.000000 -0.015000 -0.006000 0.000000 -0.015000 -0.006000 0.000000 -0.015000 -0.006000 0.000000 -0.021000 -0.006000 0.000000 -0.021000 -0.006000 0.000000 -0.021000 -0.006000 0.000000 -0.021000 -0.006000 0.000000 -0.015000 -0.006000 0.000000 -0.021000 0.000000 0.000000 -0.015000 0.000000 0.000000 -0.015000 0.006000 0.000000 -0.015000 0.006000 0.000000 -0.015000 0.006000 0.000000 -0.015000 0.006000 0.000000 -0.015000 0.006000 0.000000 -0.015000 0.006000 0.000000 -0.297009 0.006000 0.000000 -0.015000 0.006000 0.000000 -0.393004 0.009000 0.000000 -0.006000 -0.009000 0.000000 -0.006000 -0.006000 0.000000 -0.018000 -0.006000 0.000000 -0.018000 -0.006000 0.000000 -0.018000 -0.006000 0.000000 -0.018000 -0.006000 0.000000 -0.018000 -0.006000 0.000000 -0.018000 -0.006000 0.000000 -0.018000 -0.006000 0.000000 -0.018000 0.000000 0.000000 -0.018000 0.000000 0.000000 -0.018000 0.006000 0.000000 -0.018000 0.006000 0.000000 -0.006000 0.006000 0.000000 -0.030000 0.006000 0.000000 -0.006000 0.006000 0.000000 -0.006000 0.006000 0.000000 -0.293996 0.006000 0.000000 -0.018000 0.006000 0.000000 -0.510016 0.009000 0.000000 -0.006000 -0.009000 0.000000 -0.006000 -0.006000 0.000000 -0.006000 -0.006000 0.000000 -0.018000 -0.006000 0.000000 -0.018000 -0.006000 0.000000 -0.018000 -0.006000 0.000000 -0.018000 -0.006000 0.000000 -0.018000 -0.006000 0.000000 -0.018000 -0.006000 0.000000 -0.018000 0.000000 0.000000 -0.018000 0.000000 0.000000 -0.018000 0.006000 0.000000 -0.018000 0.006000 0.000000 -0.006000 0.006000 0.000000 -0.030000 0.006000 0.000000 -0.006000 0.006000 0.000000 -0.006000 0.006000 0.000000 -0.300007 0.006000 0.000000 -0.018000 0.006000 0.000000 -0.464999 0.009004 0.000000 -0.006000 -0.009000 0.000000 -0.006000 -0.012000 0.000000 -0.005971 -0.012000 0.000000 -0.018030 -0.006000 0.000000 -0.018003 -0.005997 0.000000 -0.017998 -0.006009 0.000000 -0.011999 -0.006004 0.000000 -0.011998 -0.000007 0.000000 -0.018002 0.000000 0.000000 -0.018000 -0.000000 0.000000 -0.018000 -0.000000 0.000000 -0.018000 0.006000 0.000000 -0.018000 0.006000 0.000000 -0.006000 0.006000 0.000000 -0.030000 0.006000 0.000000 -0.006000 0.006000 0.000000 -0.006000 0.006000 0.000000 -0.300000 0.005999 0.000000 -0.018000 0.006000 0.000000 -0.489007 0.008581 0.000000 -0.006000 -0.015000 0.000000 -0.006000 -0.012000 0.000000 -0.005985 -0.011979 0.000000 -0.018016 -0.011929 0.000000 -0.011986 -0.005975 0.000000 -0.012013 0.000042 0.000000 -0.012007 0.000020 0.000000 -0.011993 0.000027 0.000000 -0.018000 0.000000 0.000000 -0.012000 0.000032 0.000000 -0.018000 0.000034 0.000000 -0.018000 0.000041 0.000000 -0.012000 0.006000 0.000000 -0.006000 0.006000 0.000000 -0.033000 0.006000 0.000000 -0.006000 0.006000 0.000000 -0.006000 0.006000 0.000000 -0.312002 0.006002 0.000000 -0.018001 0.006000 0.000000 -0.567065 0.015998 0.000000 -0.006000 -0.033000 0.000000 -0.006000 -0.030000 0.000000 -0.006000 -0.018020 0.000000 -0.012000 -0.006082 0.000000 -0.012000 -0.012035 0.000000 -0.012001 -0.012065 0.000000 -0.012000 -0.012031 0.000000 -0.012000 -0.012055 0.000000 -0.018000 -0.012044 0.000000 -0.012000 -0.006065 0.000000 -0.018000 -0.000078 0.000000 -0.018000 -0.000092 0.000000 -0.012000 0.006000 0.000000 -0.006000 0.006000 0.000000 -0.033000 0.006000 0.000000 -0.006000 0.006000 0.000000 -0.006000 0.006000 0.000000 -0.281999 0.005998 0.000000 -0.018000 0.006000 0.000000 -0.465099 0.008077 0.000000 -0.006000 -0.015000 0.000000 -0.006000 -0.012000 0.000000 -0.006000 -0.011981 0.000000 -0.006000 -0.011914 0.000000 -0.011988 -0.005958 0.000000 -0.012012 -0.005958 0.000000 -0.012009 0.000021 0.000000 -0.017990 0.000051 0.000000 -0.012001 0.000091 0.000000 -0.011999 0.000033 0.000000 -0.018003 0.000043 0.000000 -0.017999 0.006051 0.000000 -0.011999 0.006000 0.000000 -0.006000 0.006000 0.000000 -0.024000 0.006000 0.000000 -0.006000 0.006000 0.000000 -0.006000 0.006000 0.000000 -0.311997 0.006002 0.000000 -0.017992 0.006000 0.000000 -0.521981 0.015742 0.000000 -0.006000 -0.015000 0.000000 -0.006000 -0.012000 0.000000 -0.006000 -0.005999 0.000000 -0.006000 -0.011998 0.000000 -0.011981 -0.012000 0.000000 -0.006018 -0.000009 0.000000 -0.012001 -0.000005 0.000000 -0.006000 -0.000005 0.000000 -0.012000 -0.000048 0.000000 -0.006000 -0.000000 0.000000 -0.012000 -0.000000 0.000000 -0.012000 0.006000 0.000000 -0.012000 0.006000 0.000000 -0.006000 0.006000 0.000000 -0.030000 0.006000 0.000000 -0.006000 0.006000 0.000000 -0.006000 0.006000 0.000000 -0.258005 0.005999 0.000000 -0.018000 0.006000 0.000000 -0.509929 0.008595 0.000000 -0.006000 -0.009000 0.000000 -0.006000 -0.012000 0.000000 -0.006000 -0.006000 0.000000 -0.006000 -0.005995 0.000000 -0.006000 -0.006000 0.000000 -0.006000 -0.006000 0.000000 -0.018000 -0.006000 0.000000 -0.005992 -0.006013 0.000000 -0.012008 0.000000 0.000000 -0.006000 0.000000 0.000000 -0.012000 0.000000 0.000000 -0.012000 0.006000 0.000000 -0.006000 0.006000 0.000000 -0.006000 0.006000 0.000000 -0.030000 0.006000 0.000000 -0.006000 0.006000 0.000000 -0.006000 0.006000 0.000000 -0.276009 0.006000 0.000000 -0.018000 0.006000 0.000000 -0.480093 0.009004 0.000000 -0.006000 -0.009000 0.000000 -0.006000 -0.006000 0.000000 -0.006000 -0.006000 0.000000 -0.006000 -0.006000 0.000000 -0.006000 -0.006000 0.000000 -0.006000 -0.006000 0.000000 -0.006000 -0.006000 0.000000 -0.006000 -0.006000 0.000000 -0.012000 -0.006000 0.000000 -0.006000 0.000000 0.000000 -0.012000 0.000000 0.000000 -0.012000 0.006000 0.000000 -0.006000 0.006000 0.000000 -0.006000 0.006000 0.000000 -0.030000 0.006000 0.000000 -0.006000 0.006000 0.000000 -0.006000 0.006000 0.000000 -0.287999 0.006000 0.000000 -0.018000 0.006000 0.000000 -0.444071 0.009000 0.000000 -0.006000 -0.009000 0.000000 -0.006000 -0.006000 0.000000 -0.006000 -0.006000 0.000000 -0.006000 -0.006000 0.000000 -0.006000 -0.006000 0.000000 -0.006000 -0.006000 0.000000 -0.006000 -0.006000 0.000000 -0.006000 -0.006000 0.000000 -0.006000 -0.006000 0.000000 -0.006000 -0.000000 0.000000 -0.012000 0.000000 0.000000 -0.012000 0.006000 0.000000 -0.006000 0.006000 0.000000 -0.006000 0.006000 0.000000 -0.048000 0.006000 0.000000 -0.006000 0.006000 0.000000 -0.006000 0.006000 0.000000 -0.342024 0.006000 0.000000 -0.012000 0.006000 0.000000 -0.374846 0.009000 0.000000 -0.006000 -0.009000 0.000000 -0.006000 -0.006000 0.000000 -0.006000 -0.006000 0.000000 -0.006000 -0.006000 0.000000 -0.006000 -0.006000 0.000000 -0.006000 -0.006000 0.000000 -0.006000 -0.006000 0.000000 -0.006000 -0.006000 0.000000 -0.006000 -0.006000 0.000000 -0.006000 0.000000 0.000000 -0.012000 0.000000 0.000000 -0.012000 0.006000 0.000000 -0.006000 0.006000 0.000000 -0.006000 0.006000 0.000000 -0.027000 0.006000 0.000000 -0.006000 0.006000 0.000000 -0.006000 0.006000 0.000000 -0.219010 0.006000 0.000000 -0.012000 0.006000 0.000000 -0.495071 0.009000 0.000000 -0.006000 -0.009000 0.000000 -0.006000 -0.006000 0.000000 -0.006000 -0.006000 0.000000 -0.006000 -0.006000 0.000000 -0.006000 -0.006000 0.000000 -0.006000 -0.006000 0.000000 -0.006000 -0.006000 0.000000 -0.006000 -0.006000 0.000000 -0.006000 -0.006000 0.000000 -0.006000 0.000000 0.000000 -0.012000 0.000000 0.000000 -0.012000 0.006000 0.000000 -0.006000 0.006000 0.000000 -0.006000 0.006000 0.000000 -0.033000 0.006000 0.000000 -0.006000 0.006000 0.000000 -0.006000 0.006000 0.000000 -0.294007 0.006000 0.000000 -0.012000 0.006000 0.000000 -0.507044 0.009000 0.000000 -0.006000 -0.009000 0.000000 -0.006000 -0.006000 0.000000 -0.006000 -0.006000 0.000000 -0.006000 -0.006000 0.000000 -0.006000 -0.006000 0.000000 -0.006000 -0.006000 0.000000 -0.006000 -0.006000 0.000000 -0.006000 -0.006000 0.000000 -0.006000 -0.006000 0.000000 -0.006000 0.000000 0.000000 -0.006000 0.000000 0.000000 -0.006000 0.006000 0.000000 -0.006000 0.006000 0.000000 -0.006000 0.006000 0.000000 -0.012000 0.006000 0.000000 -0.006000 0.006000 0.000000 -0.006000 0.006000 0.000000 -0.299985 0.006000 0.000000 -0.012000 0.006000 0.000000 -0.492352 0.009000 0.000000 -0.006000 -0.009000 0.000000 -0.006000 -0.006000 0.000000 -0.006000 -0.006000 0.000000 -0.006000 -0.006000 0.000000 -0.006000 -0.006000 0.000000 -0.006000 -0.006000 0.000000 -0.006000 -0.006000 0.000000 -0.006000 -0.006000 0.000000 -0.006000 -0.006000 0.000000 -0.006000 0.000000 0.000000 -0.006000 0.000000 0.000000 -0.006000 0.006000 0.000000 -0.006000 0.006000 0.000000 -0.006000 0.006000 0.000000 -0.042000 0.006000 0.000000 -0.006000 0.006000 0.000000 -0.006000 0.006000 0.000000 -0.278986 0.006000 0.000000 -0.012000 0.006000 0.000000 -0.536882 0.009000 0.000000 -0.006000 -0.009000 0.000000 -0.006000 -0.006000 0.000000 -0.006000 -0.006000 0.000000 -0.006000 -0.006000 0.000000 -0.006000 -0.006000 0.000000 -0.006000 -0.006000 0.000000 -0.006000 -0.006000 0.000000 -0.006000 -0.006000 0.000000 -0.006000 -0.006000 0.000000 -0.006000 0.000000 0.000000 -0.006000 0.000000 0.000000 -0.006000 0.006000 0.000000 -0.006000 0.006000 0.000000 -0.006000 0.006000 0.000000 -0.024000 0.006000 0.000000 -0.006000 0.006000 0.000000 -0.006000 0.006000 0.000000 -0.315019 0.006000 0.000000 -0.012000 0.006000 0.000000 -0.435121 0.009000 0.000000 -0.006000 -0.009000 0.000000 -0.006000 -0.006000 0.000000 -0.006000 -0.006000 0.000000 -0.006000 -0.006000 0.000000 -0.006000 -0.006000 0.000000 -0.006000 -0.006000 0.000000 -0.006000 -0.006000 0.000000 -0.006000 -0.006000 0.000000 -0.006000 -0.006000 0.000000 -0.006000 0.000000 0.000000 -0.006000 0.000000 0.000000 -0.006000 0.006000 0.000000 -0.006000 0.006000 0.000000 -0.006000 0.006000 0.000000 -0.027000 0.006000 0.000000 -0.006000 0.006000 0.000000 -0.006000 0.006000 0.000000 -0.266991 0.006000 0.000000 -0.012000 0.006000 0.000000 -0.446835 0.009000 0.000000 -0.006000 -0.009000 0.000000 -0.006000 -0.006000 0.000000 -0.006000 -0.006000 0.000000 -0.006000 -0.006000 0.000000 -0.006000 -0.006000 0.000000 -0.006000 -0.006000 0.000000 -0.006000 -0.006000 0.000000 -0.006000 -0.006000 0.000000 -0.006000 -0.006000 0.000000 -0.006000 0.000000 0.000000 -0.006000 0.000000 0.000000 -0.006000 0.006000 0.000000 -0.006000 0.006000 0.000000 -0.006000 0.006000 0.000000 -0.033000 0.006000 0.000000 -0.006000 0.006000 0.000000 -0.006000 0.006000 0.000000 -0.279096 0.006000 0.000000 -0.012000 0.006000 0.000000 -0.449804 0.009000 0.000000 -0.006000 -0.009000 0.000000 -0.006000 -0.006000 0.000000 -0.006000 -0.006000 0.000000 -0.006000 -0.006000 0.000000 -0.006000 -0.006000 0.000000 -0.006000 -0.006000 0.000000 -0.006000 -0.006000 0.000000 -0.006000 -0.006000 0.000000 -0.006000 -0.006000 0.000000 -0.006000 0.000000 0.000000 -0.006000 0.000000 0.000000 -0.006000 0.006000 0.000000 -0.006000 0.006000 0.000000 -0.006000 0.006000 0.000000 -0.039000 0.006000 0.000000 -0.006000 0.006000 0.000000 -0.006000 0.006000 0.000000 -0.356986 0.006000 0.000000 -0.006000 0.006000 0.000000 -0.450557 0.009000 0.000000 -0.006000 -0.009000 0.000000 -0.006000 -0.006000 0.000000 -0.006000 -0.006000 0.000000 -0.006000 -0.006000 0.000000 -0.006000 -0.006000 0.000000 -0.006000 -0.006000 0.000000 -0.006000 -0.006000 0.000000 -0.006000 -0.006000 0.000000 -0.006000 -0.006000 0.000000 -0.006000 0.000000 0.000000 -0.006000 0.000000 0.000000 -0.006000 0.006000 0.000000 -0.006000 0.006000 0.000000 -0.006000 0.006000 0.000000 -0.024000 0.006000 0.000000 -0.006000 0.006000 0.000000 -0.006000 0.006000 0.000000 -0.329907 0.006000 0.000000 -0.006000 0.006000 0.000000 -0.353295 0.009000 0.000000 -0.006000 -0.009000 0.000000 -0.006000 -0.006000 0.000000 -0.006000 -0.006000 0.000000 -0.006000 -0.006000 0.000000 -0.006000 -0.006000 0.000000 -0.006000 -0.006000 0.000000 -0.006000 -0.006000 0.000000 -0.006000 -0.006000 0.000000 -0.006000 -0.006000 0.000000 -0.006000 0.000000 0.000000 -0.006000 0.000000 0.000000 -0.006000 0.006000 0.000000 -0.006000 0.006000 0.000000 -0.006000 0.006000 0.000000 -0.024000 0.006000 0.000000 -0.006000 0.006000 0.000000 -0.006000 0.006000 0.000000 -0.294002 0.006000 0.000000 -0.006000 0.006000 0.000000 -0.426007 0.009000 0.000000 -0.006000 -0.009000 0.000000 -0.006000 -0.006000 0.000000 -0.006000 -0.006000 0.000000 -0.006000 -0.006000 0.000000 -0.006000 -0.006000 0.000000 -0.006000 -0.006000 0.000000 -0.006000 -0.006000 0.000000 -0.006000 -0.006000 0.000000 -0.006000 -0.006000 0.000000 -0.006000 0.000000 0.000000 -0.006000 0.000000 0.000000 -0.006000 0.006000 0.000000 -0.006000 0.006000 0.000000 -0.006000 0.006000 0.000000 -0.018000 0.006000 0.000000 -0.006000 0.006000 0.000000 -0.006000 0.006000 0.000000 -0.336235 0.006000 0.000000 -0.006000 0.006000 0.000000 -0.424582 0.009000 0.000000 -0.006000 -0.009000 0.000000 -0.006000 -0.006000 0.000000 -0.006000 -0.006000 0.000000 -0.006000 -0.006000 0.000000 -0.006000 -0.006000 0.000000 -0.006000 -0.006000 0.000000 -0.006000 -0.006000 0.000000 -0.006000 -0.006000 0.000000 -0.006000 -0.006000 0.000000 -0.006000 0.000000 0.000000 -0.006000 0.000000 0.000000 -0.006000 0.006000 0.000000 -0.000000 0.006000 0.000000 -0.006000 0.006000 0.000000 -0.030000 0.006000 0.000000 -0.006000 0.006000 0.000000 -0.006000 0.006000 0.000000 -0.351109 0.006000 0.000000 0.000000 0.006000 0.000000 -0.473990 0.009000 0.000000 -0.006000 -0.009000 0.000000 -0.006000 -0.006000 0.000000 -0.006000 -0.006000 0.000000 -0.006000 -0.006000 0.000000 -0.006000 -0.006000 0.000000 -0.006000 -0.006000 0.000000 -0.006000 -0.006000 0.000000 -0.006000 -0.006000 0.000000 -0.006000 -0.006000 0.000000 -0.006000 0.000000 0.000000 -0.006000 0.000000 0.000000 -0.006000 0.006000 0.000000 -0.000000 0.006000 0.000000 -0.006000 0.006000 0.000000 -0.030000 0.006000 0.000000 -0.006000 0.006000 0.000000 -0.006000 0.006000 0.000000 -0.258065 0.006000 0.000000 0.000000 0.006000 0.000000 -0.521718 0.009000 0.000000 -0.006000 -0.009000 0.000000 -0.006000 -0.006000 0.000000 -0.006000 -0.006000 0.000000 -0.006000 -0.006000 0.000000 -0.006000 -0.006000 0.000000 -0.006000 -0.006000 0.000000 -0.006000 -0.006000 0.000000 -0.006000 -0.006000 0.000000 -0.006000 -0.006000 0.000000 -0.006000 0.000000 0.000000 -0.006000 0.000000 0.000000 -0.006000 0.006000 0.000000 -0.000000 0.006000 0.000000 -0.006000 0.006000 0.000000 -0.024000 0.006000 0.000000 -0.006000 0.006000 0.000000 -0.006000 0.006000 0.000000 -0.348081 0.006000 0.000000 -0.000000 0.006000 0.000000 -0.435396 0.009000 0.000000 -0.006000 -0.009000 0.000000 -0.006000 -0.006000 0.000000 -0.006000 -0.006000 0.000000 -0.006000 -0.006000 0.000000 -0.006000 -0.006000 0.000000 -0.006000 -0.006000 0.000000 -0.006000 -0.006000 0.000000 -0.006000 -0.006000 0.000000 -0.006000 -0.006000 0.000000 -0.006000 0.000000 0.000000 -0.006000 0.000000 0.000000 -0.006000 0.006000 0.000000 -0.000000 0.006000 0.000000 -0.006000 0.006000 0.000000 -0.039000 0.006000 0.000000 -0.006000 0.006000 0.000000 -0.006000 0.006000 0.000000 -0.300907 0.005999 0.000000 0.000000 0.006000 0.000000 -0.418110 0.008992 0.000000 -0.006000 -0.009000 0.000000 -0.006000 -0.006000 0.000000 -0.006000 -0.006000 0.000000 -0.006000 -0.006000 0.000000 -0.000000 -0.006000 0.000000 -0.006000 -0.006000 0.000000 -0.006000 -0.006000 0.000000 -0.006000 -0.006000 0.000000 -0.006000 -0.006000 0.000000 -0.006000 0.000000 0.000000 -0.006000 0.000000 0.000000 -0.300004 0.006001 0.000000 -0.000000 0.006000 0.000000 -0.006000 0.006000 0.000000 -0.027000 0.006000 0.000000 -0.006000 0.006000 0.000000 -0.006000 0.006000 0.000000 -0.245257 0.006074 0.000000 0.000000 0.006000 0.000000 -0.514143 0.009337 0.000000 -0.006000 -0.009000 0.000000 -0.006000 -0.006000 0.000000 -0.006000 -0.006000 0.000000 -0.006000 -0.006000 0.000000 0.000000 -0.006000 0.000000 -0.006000 -0.006000 0.000000 -0.006000 -0.006000 0.000000 -0.006000 -0.006000 0.000000 -0.006000 -0.006000 0.000000 -0.006000 0.000000 0.000000 -0.000000 0.000000 0.000000 -0.321006 0.000223 0.000000 0.000000 0.006000 0.000000 -0.006003 0.006000 0.000000 -0.024003 0.005997 0.000000 -0.006000 0.006000 0.000000 -0.006000 0.012000 0.000000 -0.253668 0.003376 0.000000 0.006000 0.006000 0.000000 -0.295123 0.001639 0.000000 -0.006000 -0.009000 0.000000 -0.006000 -0.012000 0.000000 -0.006001 -0.006000 0.000000 -0.000005 -0.005989 0.000000 0.000013 -0.006000 0.000000 -0.006008 -0.006000 0.000000 -0.005999 -0.005952 0.000000 -0.005999 -0.005992 0.000000 -0.006001 -0.000000 0.000000 -0.006000 -0.000000 0.000000 -0.000000 -0.000000 0.000000 -0.225080 0.008023 0.000000 -0.000002 0.000055 0.000000 -0.006004 -0.000000 0.000000 -0.024114 0.012421 0.000000 -0.006000 0.012000 0.000000 -0.005999 0.012000 0.000000 -0.372278 0.035971 0.000000 0.006242 0.035999 0.000000 -0.649910 0.079595 0.000000 -0.006000 -0.183001 0.000000 -0.006002 -0.180005 0.000000 -0.005996 -0.173940 0.000000 -0.000613 -0.167985 0.000000 0.000448 -0.185984 0.000000 0.001280 -0.173957 0.000000 0.004719 -0.173992 0.000000 0.004512 -0.204002 0.000000 0.002124 -0.341989 0.000000 -0.000993 -0.221841 0.000000 0.000913 -0.059902 0.000000 -0.240747 -0.211742 0.000000 0.011275 -0.249049 0.000000 -0.006860 -0.194999 0.000000 -0.087012 -0.138632 0.000000 -0.006070 -0.078024 0.000000 0.010869 -0.107797 0.000000 -2.509369 -0.230326 0.000000 0.029703 -0.083570 0.000000 -1.329186 0.077772 0.000000 -0.010892 -3.372063 0.000000 -0.022835 -3.426071 0.000000 -0.027433 -3.330098 0.000000 0.000214 -3.348128 0.000000 -0.022043 -3.356849 0.000000 -0.071026 -9.562275 0.000000 0.176637 -3.059229 0.000000 -0.369340 -9.070422 0.000000 0.437059 -2.945079 0.000000 -0.732180 -7.009984 0.000000 0.505925 -3.149330 0.000000 0.328432 -1.203551 0.000000 -0.031036 -6.869331 0.000000 0.394166 -0.430533 0.000000 0.121508 0.423115 0.000000 0.288339 -0.943060 0.000000 0.612790 -3.239188 0.000000 0.334705 -2.068505 0.000000 -1.566892 0.809788 0.000000 5.213757 -0.981864 0.000000 -0.011389 -3.393069 0.000000 -0.010638 -3.396152 0.000000 -0.025286 -3.399216 0.000000 0.005284 -3.312135 0.000000 -0.022047 -3.363381 0.000000 -0.054550 -9.713171 0.000000 0.124584 -3.115673 0.000000 -0.386154 -9.652921 0.000000 0.483478 -2.639343 0.000000 -0.650778 -9.763865 0.000000 0.411688 -2.312964 0.000000 0.916473 -9.254916 0.000000 -1.286909 -2.189767 0.000000 0.556612 -8.307080 0.000000 0.217488 -1.167772 0.000000 -1.341932 -1.212450 0.000000 1.050864 -5.170511 0.000000 0.784961 -0.828592 0.000000 -3.157546 -1.020616 0.000000 -2.391575 0.911248 0.000000 -0.011484 -3.321047 0.000000 -0.011478 -3.303031 0.000000 -0.018012 -3.402092 0.000000 0.005831 -3.366257 0.000000 -0.029217 -3.294713 0.000000 -0.014791 -9.645297 0.000000 0.148486 -3.119224 0.000000 -0.386094 -9.584538 0.000000 0.382964 -2.667386 0.000000 -0.647562 -9.604486 0.000000 0.343349 -2.352397 0.000000 0.976104 -9.201612 0.000000 -1.460118 -2.095181 0.000000 0.565597 -8.165234 0.000000 0.138967 -1.105072 0.000000 -1.183083 -0.771178 0.000000 1.084189 -2.799221 0.000000 1.123957 -4.158158 0.000000 -0.803040 -9.814007 0.000000 -2.167292 -0.272326 0.000000 -0.011569 -3.423072 0.000000 -0.002703 -3.351092 0.000000 -0.010288 -3.396210 0.000000 0.006611 -3.384457 0.000000 -0.030935 -3.285955 0.000000 -0.030133 -9.793194 0.000000 0.144256 -3.118359 0.000000 -0.381157 -9.625685 0.000000 0.374318 -2.623115 0.000000 -0.609173 -9.605301 0.000000 0.196275 -2.330836 0.000000 1.151408 -9.291837 0.000000 -1.478983 -2.090763 0.000000 0.557832 -8.212118 0.000000 0.211467 -1.102522 0.000000 -1.168162 -0.472592 0.000000 1.069997 -2.859617 0.000000 1.836932 -3.624447 0.000000 -0.989123 -10.328109 0.000000 -1.633196 -0.597080 0.000000 -0.005807 -3.345084 0.000000 -0.009431 -3.408039 0.000000 -0.016893 -3.387142 0.000000 0.028641 -3.372093 0.000000 -0.028575 -3.297419 0.000000 -0.039618 -9.689396 0.000000 0.159954 -3.075068 0.000000 -0.326642 -9.724914 0.000000 0.388772 -2.650342 0.000000 -0.624299 -9.618712 0.000000 0.121241 -2.376356 0.000000 1.210782 -9.306914 0.000000 -1.494205 -2.073756 0.000000 0.583404 -8.372095 0.000000 0.203430 -1.079358 0.000000 -1.109328 -0.355590 0.000000 1.045073 -2.923765 0.000000 3.000347 -6.377667 0.000000 -1.765521 -7.705733