<VTKFile type="UnstructuredGrid" version="0.1" byte_order="LittleEndian">
  <UnstructuredGrid>
    <Piece NumberOfPoints="2000" NumberOfCells="0">
      <Points>
        <DataArray name="Position" type="Float32" NumberOfComponents="3" format="ascii">
-0.004674 -0.002807 0.000000 -0.004674 0.998129 0.000000 -0.004674 1.998129 0.000000 -0.004674 2.998129 0.000000 -0.006378 3.998130 0.000000 -0.006512 4.998130 0.000000 -0.006497 5.998130 0.000000 -0.006533 6.998130 0.000000 -0.004665 7.998131 0.000000 -0.006532 9.000000 0.000000 -0.004661 10.000001 0.000000 -0.004660 11.001869 0.000000 -0.004662 12.001870 0.000000 -0.004662 13.001870 0.000000 -0.004662 14.001870 0.000000 -0.004656 15.001870 0.000000 -0.004656 16.001871 0.000000 -0.004656 17.001871 0.000000 -0.004656 18.001871 0.000000 -0.004656 19.002807 0.000000 0.998126 -0.002807 0.000000 0.998126 0.998129 0.000000 0.996130 1.998129 0.000000 0.995866 2.998129 0.000000 0.995852 3.998130 0.000000 0.994430 4.998130 0.000000 0.994500 5.998130 0.000000 0.995848 6.998130 0.000000 0.995831 7.998131 0.000000 0.996099 9.000000 0.000000 0.995797 10.000001 0.000000 0.996053 11.001869 0.000000 0.998111 12.001870 0.000000 0.998120 13.001870 0.000000 0.998120 14.001870 0.000000 0.998117 15.001870 0.000000 0.998117 16.001871 0.000000 0.997822 17.001871 0.000000 0.995858 18.001871 0.000000 0.995650 19.002807 0.000000 1.998129 -0.002807 0.000000 1.998129 0.998129 0.000000 1.998125 1.998129 0.000000 1.995870 2.998129 0.000000 1.995887 3.998130 0.000000 1.996255 4.998130 0.000000 1.996155 5.998130 0.000000 1.995878 6.998130 0.000000 1.995832 7.998131 0.000000 1.996120 9.000000 0.000000 1.995822 10.000001 0.000000 1.996083 11.001869 0.000000 1.998119 12.001870 0.000000 1.998129 13.001870 0.000000 1.998129 14.001870 0.000000 1.998129 15.001870 0.000000 1.998129 16.001871 0.000000 1.997862 17.001871 0.000000 1.995868 18.001871 0.000000 1.995664 19.002807 0.000000 2.998129 -0.002807 0.000000 2.998129 0.997997 0.000000 2.998129 1.998128 0.000000 2.995875 2.998127 0.000000 2.995905 3.998129 0.000000 2.996263 4.998130 0.000000 2.996248 5.998130 0.000000 2.996263 6.998131 0.000000 2.995834 7.998266 0.000000 2.996263 9.000000 0.000000 2.995826 10.000001 0.000000 2.996105 11.001869 0.000000 2.998119 12.001870 0.000000 2.998129 13.001870 0.000000 2.998129 14.001870 0.000000 2.998129 15.001870 0.000000 2.998129 16.001871 0.000000 2.997888 17.001871 0.000000 2.995885 18.001871 0.000000 2.995664 19.002807 0.000000 3.998129 -0.003062 0.000000 3.998129 0.997171 0.000000 3.998129 1.997320 0.000000 3.995944 2.997324 0.000000 3.996178 3.997408 0.000000 3.996263 4.998859 0.000000 3.996265 5.998947 0.000000 3.996267 6.999095 0.000000 3.995834 7.999194 0.000000 3.996267 9.000002 0.000000 3.995845 10.000007 0.000000 3.996128 11.000902 0.000000 3.998119 12.001870 0.000000 3.998129 13.001870 0.000000 3.998129 14.001870 0.000000 3.998129 15.001871 0.000000 3.998129 16.001871 0.000000 3.997963 17.001872 0.000000 3.995892 18.002771 0.000000 3.995651 19.002879 0.000000 4.998130 -0.010196 0.000000 4.998130 0.993405 0.000000 4.998128 1.994374 0.000000 4.998123 2.995380 0.000000 4.997404 3.996243 0.000000 4.996266 4.996261 0.000000 4.996266 5.996269 0.000000 4.996268 6.996273 0.000000 4.995871 7.996997 0.000000 4.996269 8.998124 0.000000 4.995847 9.999240 0.000000 4.996128 10.999985 0.000000 4.998127 12.001870 0.000000 4.998130 13.001870 0.000000 4.998130 14.001870 0.000000 4.998130 15.001870 0.000000 4.998130 16.001871 0.000000 4.997971 17.001871 0.000000 4.995913 18.001871 0.000000 4.995618 19.002807 0.000000 5.998131 -0.004667 0.000000 5.998131 0.996298 0.000000 5.998131 1.997066 0.000000 5.998131 2.997404 0.000000 5.997562 3.998131 0.000000 5.996270 4.998866 0.000000 5.996297 5.998947 0.000000 5.998121 6.999196 0.000000 5.996978 7.999977 0.000000 5.996320 9.000005 0.000000 5.995863 10.000970 0.000000 5.996188 11.001070 0.000000 5.998130 12.001870 0.000000 5.998130 13.001870 0.000000 5.998130 14.001870 0.000000 5.998130 15.001871 0.000000 5.998130 16.001871 0.000000 5.997974 17.001872 0.000000 5.995913 18.002776 0.000000 5.995505 19.002807 0.000000 6.998131 -0.003112 0.000000 6.998131 0.997130 0.000000 6.998131 1.997345 0.000000 6.998131 2.997986 0.000000 6.998132 3.998129 0.000000 6.996300 4.998128 0.000000 6.996306 5.998275 0.000000 6.998126 6.999124 0.000000 6.996984 7.999214 0.000000 6.998120 8.999999 0.000000 6.996962 10.000001 0.000000 6.997089 11.001869 0.000000 6.998130 12.001870 0.000000 6.998130 13.001870 0.000000 6.998130 14.001870 0.000000 6.998130 15.001870 0.000000 6.998130 16.001871 0.000000 6.997988 17.001871 0.000000 6.995914 18.001871 0.000000 6.995495 19.002807 0.000000 7.998131 -0.002807 0.000000 7.998131 0.998129 0.000000 7.998131 1.998129 0.000000 7.998131 2.998129 0.000000 7.998133 3.998129 0.000000 7.998120 4.998130 0.000000 7.998120 5.998130 0.000000 7.998127 6.998130 0.000000 7.996987 7.998131 0.000000 7.998126 8.999999 0.000000 7.996970 10.000001 0.000000 7.997100 11.001869 0.000000 7.998130 12.001870 0.000000 7.998130 13.001870 0.000000 7.998130 14.001870 0.000000 7.998130 15.001870 0.000000 7.998130 16.001871 0.000000 7.997995 17.001871 0.000000 7.995918 18.001871 0.000000 7.995496 19.002807 0.000000 8.998131 -0.002807 0.000000 8.998131 0.998129 0.000000 8.998131 1.998129 0.000000 8.998131 2.998129 0.000000 8.998133 3.998130 0.000000 8.998127 4.998130 0.000000 8.998127 5.998130 0.000000 8.998127 6.998130 0.000000 8.996991 7.998131 0.000000 8.998127 9.000000 0.000000 8.996975 10.000001 0.000000 8.997104 11.001869 0.000000 8.998130 12.001870 0.000000 8.998131 13.001870 0.000000 8.998131 14.001870 0.000000 8.998131 15.001870 0.000000 8.998131 16.001871 0.000000 8.997996 17.001871 0.000000 8.995948 18.001871 0.000000 8.995494 19.002807 0.000000 9.998132 -0.002807 0.000000 9.998132 0.998129 0.000000 9.998132 1.998129 0.000000 9.998132 2.998129 0.000000 9.998133 3.998130 0.000000 9.998128 4.998130 0.000000 9.998129 5.998130 0.000000 9.998130 6.998130 0.000000 9.998118 7.998131 0.000000 9.998127 9.000000 0.000000 9.996977 10.000001 0.000000 9.997106 11.001869 0.000000 9.998130 12.001870 0.000000 9.998131 13.001870 0.000000 9.998131 14.001870 0.000000 9.998131 15.001870 0.000000 9.998131 16.001871 0.000000 9.998008 17.001871 0.000000 9.996998 18.001871 0.000000 9.995485 19.002807 0.000000 10.998132 -0.002807 0.000000 10.998132 0.998129 0.000000 10.998132 1.998129 0.000000 10.998132 2.998129 0.000000 10.998133 3.998130 0.000000 10.998135 4.998130 0.000000 10.998135 5.998130 0.000000 10.998133 6.998130 0.000000 10.998133 7.998131 0.000000 10.998133 9.000000 0.000000 10.996977 10.000001 0.000000 10.997115 11.001869 0.000000 10.998130 12.001870 0.000000 10.998131 13.001870 0.000000 10.998131 14.001870 0.000000 10.998131 15.001870 0.000000 10.998131 16.001871 0.000000 10.998010 17.001871 0.000000 10.996999 18.001871 0.000000 10.995484 19.002807 0.000000 11.998132 -0.002807 0.000000 11.998132 0.998129 0.000000 11.998132 1.998129 0.000000 11.998132 2.998129 0.000000 11.998134 3.998130 0.000000 11.998135 4.998130 0.000000 11.998135 5.998130 0.000000 11.998133 6.998130 0.000000 11.998133 7.998131 0.000000 11.998133 9.000000 0.000000 11.996979 10.000001 0.000000 11.997117 11.001869 0.000000 11.998130 12.001870 0.000000 11.998132 13.001870 0.000000 11.998132 14.001870 0.000000 11.998132 15.001870 0.000000 11.998132 16.001871 0.000000 11.998114 17.001871 0.000000 11.997006 18.001871 0.000000 11.995473 19.002807 0.000000 12.998133 -0.002807 0.000000 12.998133 0.998129 0.000000 12.998133 1.998129 0.000000 12.998133 2.998129 0.000000 12.998134 3.998130 0.000000 12.998135 4.998130 0.000000 12.998135 5.998130 0.000000 12.998134 6.998130 0.000000 12.998134 7.998131 0.000000 12.998134 9.000000 0.000000 12.998116 10.000001 0.000000 12.998114 11.001869 0.000000 12.998130 12.001870 0.000000 12.998132 13.001870 0.000000 12.998132 14.001870 0.000000 12.998132 15.001870 0.000000 12.998132 16.001871 0.000000 12.998128 17.001871 0.000000 12.997008 18.001871 0.000000 12.995469 19.002807 0.000000 13.998133 -0.002807 0.000000 13.998133 0.998129 0.000000 13.998133 1.998129 0.000000 13.998133 2.998129 0.000000 13.998134 3.998130 0.000000 13.998135 4.998130 0.000000 13.998135 5.998130 0.000000 13.998134 6.998130 0.000000 13.998134 7.998131 0.000000 13.998134 9.000000 0.000000 13.998126 10.000001 0.000000 13.998124 11.001869 0.000000 13.998131 12.001870 0.000000 13.998132 13.001870 0.000000 13.998132 14.001870 0.000000 13.998132 15.001870 0.000000 13.998132 16.001871 0.000000 13.998128 17.001871 0.000000 13.997010 18.001871 0.000000 13.995471 19.002807 0.000000 14.998133 -0.002807 0.000000 14.998133 0.998129 0.000000 14.998133 1.998129 0.000000 14.998133 2.998129 0.000000 14.998135 3.998130 0.000000 14.998136 4.998130 0.000000 14.998136 5.998130 0.000000 14.998134 6.998130 0.000000 14.998134 7.998131 0.000000 14.998134 9.000000 0.000000 14.998126 10.000001 0.000000 14.998126 11.001869 0.000000 14.998135 12.001870 0.000000 14.998133 13.001870 0.000000 14.998133 14.001870 0.000000 14.998133 15.001870 0.000000 14.998133 16.001871 0.000000 14.998130 17.001871 0.000000 14.997012 18.001871 0.000000 14.995431 19.002807 0.000000 15.998133 -0.002807 0.000000 15.998133 0.998129 0.000000 15.998133 1.998129 0.000000 15.998133 2.998129 0.000000 15.998135 3.998130 0.000000 15.998136 4.998130 0.000000 15.998136 5.998130 0.000000 15.998135 6.998130 0.000000 15.998135 7.998131 0.000000 15.998135 9.000000 0.000000 15.998129 10.000001 0.000000 15.998129 11.001869 0.000000 15.998135 12.001870 0.000000 15.998134 13.001870 0.000000 15.998134 14.001870 0.000000 15.998133 15.001870 0.000000 15.998133 16.001871 0.000000 15.998130 17.001871 0.000000 15.997037 18.001871 0.000000 15.995369 19.002807 0.000000 16.998134 -0.002807 0.000000 16.998134 0.998129 0.000000 16.998134 1.998129 0.000000 16.998134 2.998129 0.000000 16.998135 3.998130 0.000000 16.998136 4.998130 0.000000 16.998136 5.998130 0.000000 16.998135 6.998130 0.000000 16.998135 7.998131
[...]
      <PointData Vectors="vector">
        <DataArray type="Float32" Name="Velocity" NumberOfComponents="3" format="ascii">
-0.015000 -0.009000 0.000000 -0.015000 -0.006000 0.000000 -0.015000 -0.006000 0.000000 -0.015000 -0.006000 0.000000 -0.021000 -0.006000 0.000000 -0.021000 -0.006000 0.000000 -0.021000 -0.006000 0.000000 -0.021000 -0.006000 0.000000 -0.015000 -0.006000 0.000000 -0.021000 0.000000 0.000000 -0.015000 0.000000 0.000000 -0.015000 0.006000 0.000000 -0.015000 0.006000 0.000000 -0.015000 0.006000 0.000000 -0.015000 0.006000 0.000000 -0.015000 0.006000 0.000000 -0.015000 0.006000 0.000000 -0.015000 0.006000 0.000000 -0.015000 0.006000 0.000000 -0.015000 0.009000 0.000000 -0.006000 -0.009000 0.000000 -0.006000 -0.006000 0.000000 -0.018000 -0.006000 0.000000 -0.018000 -0.006000 0.000000 -0.018000 -0.006000 0.000000 -0.018000 -0.006000 0.000000 -0.018000 -0.006000 0.000000 -0.018000 -0.006000 0.000000 -0.018000 -0.006000 0.000000 -0.018000 0.000000 0.000000 -0.018000 0.000000 0.000000 -0.018000 0.006000 0.000000 -0.018000 0.006000 0.000000 -0.006000 0.006000 0.000000 -0.006000 0.006000 0.000000 -0.006000 0.006000 0.000000 -0.006000 0.006000 0.000000 -0.018000 0.006000 0.000000 -0.018000 0.006000 0.000000 -0.018000 0.009000 0.000000 -0.006000 -0.009000 0.000000 -0.006000 -0.006000 0.000000 -0.006000 -0.006000 0.000000 -0.018000 -0.006000 0.000000 -0.018000 -0.006000 0.000000 -0.012000 -0.006000 0.000000 -0.018000 -0.006000 0.000000 -0.018000 -0.006000 0.000000 -0.018000 -0.006000 0.000000 -0.018000 0.000000 0.000000 -0.018000 0.000000 0.000000 -0.018000 0.006000 0.000000 -0.006000 0.006000 0.000000 -0.006000 0.006000 0.000000 -0.006000 0.006000 0.000000 -0.006000 0.006000 0.000000 -0.006000 0.006000 0.000000 -0.018000 0.006000 0.000000 -0.018000 0.006000 0.000000 -0.021000 0.009000 0.000000 -0.006000 -0.009000 0.000000 -0.006000 -0.012000 0.000000 -0.005988 -0.006000 0.000000 -0.018012 -0.006000 0.000000 -0.018001 -0.005997 0.000000 -0.011999 -0.006000 0.000000 -0.012000 -0.006004 0.000000 -0.011998 -0.006007 0.000000 -0.018002 0.000000 0.000000 -0.012000 -0.000000 0.000000 -0.018000 -0.000000 0.000000 -0.018000 0.006000 0.000000 -0.012000 0.006000 0.000000 -0.006000 0.006000 0.000000 -0.006000 0.006000 0.000000 -0.006000 0.006000 0.000000 -0.006000 0.006000 0.000000 -0.018000 0.006000 0.000000 -0.018000 0.006000 0.000000 -0.066000 0.008996 0.000000 -0.006000 -0.015000 0.000000 -0.006000 -0.012000 0.000000 -0.005998 -0.005979 0.000000 -0.018001 -0.011929 0.000000 -0.011988 -0.011975 0.000000 -0.012013 0.000000 0.000000 -0.012007 0.000020 0.000000 -0.011993 0.000027 0.000000 -0.018000 0.000000 0.000000 -0.012000 0.000021 0.000000 -0.018000 0.000034 0.000000 -0.018000 0.000041 0.000000 -0.012000 0.006000 0.000000 -0.006000 0.006000 0.000000 -0.006000 0.006000 0.000000 -0.006000 0.006000 0.000000 -0.006000 0.006000 0.000000 -0.011998 0.006000 0.000000 -0.018001 0.006000 0.000000 -0.072003 0.015011 0.000000 -0.006000 -0.033000 0.000000 -0.006000 -0.030000 0.000000 -0.006000 -0.018020 0.000000 -0.006000 -0.006071 0.000000 -0.012000 -0.012035 0.000000 -0.012001 -0.012001 0.000000 -0.012000 -0.012031 0.000000 -0.012000 -0.012055 0.000000 -0.018000 -0.012044 0.000000 -0.012000 -0.006042 0.000000 -0.018000 -0.000078 0.000000 -0.018000 -0.000092 0.000000 -0.012000 0.006000 0.000000 -0.006000 0.006000 0.000000 -0.006000 0.006000 0.000000 -0.006000 0.006000 0.000000 -0.006000 0.006000 0.000000 -0.012000 0.006000 0.000000 -0.018000 0.006000 0.000000 -0.096011 0.008993 0.000000 -0.006000 -0.015000 0.000000 -0.006000 -0.012000 0.000000 -0.006000 -0.011981 0.000000 -0.006000 -0.011929 0.000000 -0.011988 -0.005958 0.000000 -0.012012 0.000000 0.000000 -0.012009 -0.005979 0.000000 -0.005990 0.000051 0.000000 -0.012001 0.000091 0.000000 -0.017999 0.000021 0.000000 -0.018003 0.000043 0.000000 -0.017999 0.006051 0.000000 -0.005999 0.006000 0.000000 -0.006000 0.006000 0.000000 -0.006000 0.006000 0.000000 -0.006000 0.006000 0.000000 -0.006000 0.006000 0.000000 -0.011998 0.006000 0.000000 -0.018002 0.012000 0.000000 -0.113988 0.009000 0.000000 -0.006000 -0.015000 0.000000 -0.006000 -0.012000 0.000000 -0.006000 -0.005999 0.000000 -0.006000 -0.012000 0.000000 -0.005991 -0.006000 0.000000 -0.018009 -0.006000 0.000000 -0.012001 -0.000005 0.000000 -0.006000 -0.000017 0.000000 -0.012000 -0.000048 0.000000 -0.006000 -0.000000 0.000000 -0.012000 -0.000000 0.000000 -0.012000 0.006000 0.000000 -0.006000 0.006000 0.000000 -0.006000 0.006000 0.000000 -0.006000 0.006000 0.000000 -0.006000 0.006000 0.000000 -0.006000 0.006000 0.000000 -0.012000 0.006000 0.000000 -0.018000 0.006000 0.000000 -0.153000 0.009000 0.000000 -0.006000 -0.009000 0.000000 -0.006000 -0.006000 0.000000 -0.006000 -0.006000 0.000000 -0.006000 -0.006000 0.000000 -0.006000 -0.006000 0.000000 -0.006000 -0.006000 0.000000 -0.006000 -0.006000 0.000000 -0.006000 -0.006000 0.000000 -0.012000 -0.006000 0.000000 -0.006000 0.000000 0.000000 -0.012000 0.000000 0.000000 -0.012000 0.006000 0.000000 -0.006000 0.006000 0.000000 -0.006000 0.006000 0.000000 -0.006000 0.006000 0.000000 -0.006000 0.006000 0.000000 -0.006000 0.006000 0.000000 -0.012000 0.006000 0.000000 -0.018000 0.006000 0.000000 -0.165000 0.009000 0.000000 -0.006000 -0.009000 0.000000 -0.006000 -0.006000 0.000000 -0.006000 -0.006000 0.000000 -0.006000 -0.006000 0.000000 -0.006000 -0.006000 0.000000 -0.006000 -0.006000 0.000000 -0.006000 -0.006000 0.000000 -0.006000 -0.006000 0.000000 -0.012000 -0.006000 0.000000 -0.006000 0.000000 0.000000 -0.012000 0.000000 0.000000 -0.012000 0.006000 0.000000 -0.009000 0.006000 0.000000 -0.006000 0.006000 0.000000 -0.006000 0.006000 0.000000 -0.006000 0.006000 0.000000 -0.006000 0.006000 0.000000 -0.012000 0.006000 0.000000 -0.018000 0.006000 0.000000 -0.138001 0.009000 0.000000 -0.006000 -0.009000 0.000000 -0.006000 -0.006000 0.000000 -0.006000 -0.006000 0.000000 -0.006000 -0.006000 0.000000 -0.006000 -0.006000 0.000000 -0.006000 -0.006000 0.000000 -0.006000 -0.006000 0.000000 -0.006000 -0.006000 0.000000 -0.006000 -0.006000 0.000000 -0.006000 -0.000000 0.000000 -0.012000 0.000000 0.000000 -0.012000 0.006000 0.000000 -0.012000 0.006000 0.000000 -0.006000 0.006000 0.000000 -0.006000 0.006000 0.000000 -0.006000 0.006000 0.000000 -0.006000 0.006000 0.000000 -0.012000 0.006000 0.000000 -0.012000 0.006000 0.000000 -0.222002 0.009000 0.000000 -0.006000 -0.009000 0.000000 -0.006000 -0.006000 0.000000 -0.006000 -0.006000 0.000000 -0.006000 -0.006000 0.000000 -0.006000 -0.006000 0.000000 -0.006000 -0.006000 0.000000 -0.006000 -0.006000 0.000000 -0.006000 -0.006000 0.000000 -0.006000 -0.006000 0.000000 -0.006000 0.000000 0.000000 -0.012000 0.000000 0.000000 -0.012000 0.006000 0.000000 -0.012000 0.006000 0.000000 -0.006000 0.006000 0.000000 -0.006000 0.006000 0.000000 -0.006000 0.006000 0.000000 -0.006000 0.006000 0.000000 -0.012000 0.006000 0.000000 -0.012000 0.006000 0.000000 -0.198001 0.009000 0.000000 -0.006000 -0.009000 0.000000 -0.006000 -0.006000 0.000000 -0.006000 -0.006000 0.000000 -0.006000 -0.006000 0.000000 -0.006000 -0.006000 0.000000 -0.006000 -0.006000 0.000000 -0.006000 -0.006000 0.000000 -0.006000 -0.006000 0.000000 -0.006000 -0.006000 0.000000 -0.006000 0.000000 0.000000 -0.012000 0.000000 0.000000 -0.012000 0.006000 0.000000 -0.012000 0.006000 0.000000 -0.006000 0.006000 0.000000 -0.006000 0.006000 0.000000 -0.006000 0.006000 0.000000 -0.006000 0.006000 0.000000 -0.006000 0.006000 0.000000 -0.012000 0.006000 0.000000 -0.198016 0.009000 0.000000 -0.006000 -0.009000 0.000000 -0.006000 -0.006000 0.000000 -0.006000 -0.006000 0.000000 -0.006000 -0.006000 0.000000 -0.006000 -0.006000 0.000000 -0.006000 -0.006000 0.000000 -0.006000 -0.006000 0.000000 -0.006000 -0.006000 0.000000 -0.006000 -0.006000 0.000000 -0.006000 0.000000 0.000000 -0.006000 0.000000 0.000000 -0.006000 0.006000 0.000000 -0.009000 0.006000 0.000000 -0.006000 0.006000 0.000000 -0.006000 0.006000 0.000000 -0.006000 0.006000 0.000000 -0.006000 0.006000 0.000000 -0.006000 0.006000 0.000000 -0.012000 0.006000 0.000000 -0.171059 0.009000 0.000000 -0.006000 -0.009000 0.000000 -0.006000 -0.006000 0.000000 -0.006000 -0.006000 0.000000 -0.006000 -0.006000 0.000000 -0.006000 -0.006000 0.000000 -0.006000 -0.006000 0.000000 -0.006000 -0.006000 0.000000 -0.006000 -0.006000 0.000000 -0.006000 -0.006000 0.000000 -0.006000 0.000000 0.000000 -0.006000 0.000000 0.000000 -0.006000 0.006000 0.000000 0.000000 0.006000 0.000000 -0.006000 0.006000 0.000000 -0.006000 0.006000 0.000000 -0.006000 0.006000 0.000000 -0.006000 0.006000 0.000000 -0.006000 0.006000 0.000000 -0.012000 0.006000 0.000000 -0.231025 0.009000 0.000000 -0.006000 -0.009000 0.000000 -0.006000 -0.006000 0.000000 -0.006000 -0.006000 0.000000 -0.006000 -0.006000 0.000000 -0.006000 -0.006000 0.000000 -0.006000 -0.006000 0.000000 -0.006000 -0.006000 0.000000 -0.006000 -0.006000 0.000000 -0.006000 -0.006000 0.000000 -0.006000 0.000000 0.000000 -0.006000 0.000000 0.000000 -0.006000 0.006000 0.000000 -0.003000 0.006000 0.000000 -0.006000 0.006000 0.000000 -0.006000 0.006000 0.000000 -0.006000 0.006000 0.000000 -0.006000 0.006000 0.000000 -0.006000 0.006000 0.000000 -0.012000 0.006000 0.000000 -0.210160 0.009000 0.000000 -0.006000 -0.009000 0.000000 -0.006000 -0.006000 0.000000 -0.006000 -0.006000 0.000000 -0.006000 -0.006000 0.000000 -0.006000 -0.006000 0.000000 -0.006000 -0.006000 0.000000 -0.006000 -0.006000 0.000000 -0.006000 -0.006000 0.000000 -0.006000 -0.006000 0.000000 -0.006000 0.000000 0.000000 -0.006000 0.000000 0.000000 -0.006000 0.006000 0.000000 -0.000000 0.006000 0.000000 -0.006000 0.006000 0.000000 -0.006000 0.006000 0.000000 -0.006000 0.006000 0.000000 -0.006000 0.006000 0.000000 -0.006000 0.006000 0.000000 -0.012000 0.006000 0.000000 -0.119897 0.009000 0.000000 -0.006000 -0.009000 0.000000 -0.006000 -0.006000 0.000000 -0.006000 -0.006000 0.000000 -0.006000 -0.006000 0.000000 -0.006000 -0.006000 0.000000 -0.006000 -0.006000 0.000000 -0.006000 -0.006000 0.000000 -0.006000 -0.006000 0.000000 -0.006000 -0.006000 0.000000 -0.006000 0.000000 0.000000 -0.006000 0.000000 0.000000 -0.006000 0.006000 0.000000 -0.006000 0.006000 0.000000 -0.006000 0.006000 0.000000 -0.006000 0.006000 0.000000 -0.006000 0.006000 0.000000 -0.006000 0.006000 0.000000 -0.006000 0.006000 0.000000 -0.012000 0.006000 0.000000 -0.131873 0.009000 0.000000 -0.006000 -0.009000 0.000000 -0.006000 -0.006000 0.000000 -0.006000 -0.006000 0.000000 -0.006000 -0.006000 0.000000 -0.006000 -0.006000 0.000000 -0.006000 -0.006000 0.000000 -0.006000 -0.006000 0.000000 -0.006000 -0.006000 0.000000 -0.006000 -0.006000 0.000000 -0.006000 0.000000 0.000000 -0.006000 0.000000 0.000000 -0.006000 0.006000 0.000000 -0.006000 0.006000 0.000000 -0.006000 0.006000 0.000000 -0.006000 0.006000 0.000000 -0.006000 0.006000 0.000000 -0.006000 0.006000 0.000000 -0.006000 0.006000 0.000000 -0.006000 0.006000 0.000000 -0.138156 0.009000 0.000000 -0.006000 -0.009000 0.000000 -0.006000 -0.006000 0.000000 -0.006000 -0.006000 0.000000 -0.006000 -0.006000 0.000000 -0.006000 -0.006000 0.000000 -0.006000 -0.006000 0.000000 -0.006000 -0.006000 0.000000 -0.006000 -0.006000 0.000000 -0.006000 -0.006000 0.000000 -0.006000 0.000000 0.000000 -0.006000 0.000000 0.000000 -0.006000 0.006000 0.000000 -0.006000 0.006000 0.000000 -0.006000 0.006000 0.000000 -0.006000 0.006000 0.000000 -0.006000 0.006000 0.000000 -0.006000 0.006000 0.000000 -0.006000 0.006000 0.000000 -0.006000 0.006000 0.000000 -0.140814 0.009000 0.000000 -0.006000 -0.009000 0.000000 -0.006000 -0.006000 0.000000 -0.006000 -0.006000 0.000000 -0.006000 -0.006000 0.000000 -0.006000 -0.006000 0.000000 -0.006000 -0.006000 0.000000 -0.006000 -0.006000 0.000000 -0.006000 -0.006000 0.000000 -0.006000 -0.006000 0.000000 -0.006000 0.000000 0.000000 -0.006000 0.000000 0.000000 -0.006000 0.006000 0.000000 -0.006000 0.006000 0.000000 -0.006000 0.006000 0.000000 -0.006000 0.006000 0.000000 -0.006000 0.006000 0.000000 -0.006000 0.006000 0.000000 -0.000000 0.006000 0.000000 -0.006000 0.006000 0.000000 -0.159000 0.009000 0.000000 -0.006000 -0.009000 0.000000 -0.006000 -0.006000 0.000000 -0.006000 -0.006000 0.000000 -0.006000 -0.006000 0.000000 -0.006000 -0.006000 0.000000 -0.006000 -0.006000 0.000000 -0.006000 -0.006000 0.000000 -0.006000 -0.006000 0.000000 -0.006000 -0.006000 0.000000 -0.006000 0.000000 0.000000 -0.006000 0.000000 0.000000 -0.006000 0.006000 0.000000 -0.003000 0.006000 0.000000 -0.006000 0.006000 0.000000 -0.006000 0.006000 0.000000 -0.006000 0.006000 0.000000 -0.006000 0.006000 0.000000 -0.000000 0.006000 0.000000 -0.006000 0.006000 0.000000 -0.165118 0.009000 0.000000 -0.006000 -0.009000 0.000000 -0.006000 -0.006000 0.000000 -0.006000 -0.006000 0.000000 -0.006000 -0.006000 0.000000 -0.006000 -0.006000 0.000000 -0.006000 -0.006000 0.000000 -0.006000 -0.006000 0.000000 -0.006000 -0.006000 0.000000 -0.006000 -0.006000 0.000000 -0.006000 0.000000 0.000000 -0.006000 0.000000 0.000000 -0.006000 0.006000 0.000000 -0.003000 0.006000 0.000000 -0.006000 0.006000 0.000000 -0.006000 0.006000 0.000000 -0.006000 0.006000 0.000000 -0.006000 0.006000 0.000000 0.000000 0.006000 0.000000 0.000000 0.006000 0.000000 -0.167939 0.009000 0.000000 -0.006000 -0.009000 0.000000 -0.006000 -0.006000 0.000000 -0.006000 -0.006000 0.000000 -0.006000 -0.006000 0.000000 -0.006000 -0.006000 0.000000 -0.006000 -0.006000 0.000000 -0.006000 -0.006000 0.000000 -0.006000 -0.006000 0.000000 -0.006000 -0.006000 0.000000 -0.006000 0.000000 0.000000 -0.006000 0.000000 0.000000 -0.006000 0.006000 0.000000 -0.006000 0.006000 0.000000 -0.006000 0.006000 0.000000 -0.006000 0.006000 0.000000 -0.006000 0.006000 0.000000 -0.006000 0.006000 0.000000 0.000000 0.006000 0.000000 0.000000 0.006000 0.000000 -0.180014 0.009000 0.000000 -0.006000 -0.009000 0.000000 -0.006000 -0.006000 0.000000 -0.006000 -0.006000 0.000000 -0.006000 -0.006000 0.000000 -0.006000 -0.006000 0.000000 -0.006000 -0.006000 0.000000 -0.006000 -0.006000 0.000000 -0.006000 -0.006000 0.000000 -0.006000 -0.006000 0.000000 -0.006000 0.000000 0.000000 -0.006000 0.000000 0.000000 -0.006000 0.006000 0.000000 -0.006000 0.006000 0.000000 -0.006000 0.006000 0.000000 -0.006000 0.006000 0.000000 -0.006000 0.006000 0.000000 -0.006000 0.006000 0.000000 0.000000 0.006000 0.000000 -0.000000 0.006000 0.000000 -0.186161 0.009000 0.000000 -0.006000 -0.009000 0.000000 -0.006000 -0.006000 0.000000 -0.006000 -0.006000 0.000000 -0.006000 -0.006000 0.000000 -0.006000 -0.006000 0.000000 -0.006000 -0.006000 0.000000 -0.006000 -0.006000 0.000000 -0.006000 -0.006000 0.000000 -0.006000 -0.006000 0.000000 -0.006000 0.000000 0.000000 -0.006000 0.000000 0.000000 -0.006000 0.006000 0.000000 -0.006000 0.006000 0.000000 -0.006000 0.006000 0.000000 -0.006000 0.006000 0.000000 -0.006000 0.006000 0.000000 -0.006000 0.006000 0.000000 0.000000 0.006000 0.000000 0.000000 0.006000 0.000000 -0.210221 0.009000 0.000000 -0.006000 -0.009000 0.000000 -0.006000 -0.006000 0.000000 -0.006000 -0.006000 0.000000 -0.006000 -0.006000 0.000000 -0.006000 -0.006000 0.000000 -0.006000 -0.006000 0.000000 -0.006000 -0.006000 0.000000 -0.006000 -0.006000 0.000000 -0.006000 -0.006000 0.000000 -0.006000 0.000000 0.000000 -0.006000 0.000000 0.000000 -0.000000 0.006000 0.000000 -0.000000 0.006000 0.000000 -0.006000 0.006000 0.000000 -0.006000 0.006000 0.000000 -0.006000 0.006000 0.000000 -0.006000 0.006000 0.000000 0.000000 0.006000 0.000000 0.000000 0.006000 0.000000 -0.215954 0.009000 0.000000 -0.006000 -0.009000 0.000000 -0.006000 -0.006000 0.000000 -0.006000 -0.006000 0.000000 -0.006000 -0.006000 0.000000 0.000000 -0.006000 0.000000 -0.006000 -0.006000 0.000000 -0.006000 -0.006000 0.000000 -0.006000 -0.006000 0.000000 -0.006000 -0.006000 0.000000 -0.006000 0.000000 0.000000 -0.000000 0.000000 0.000000 0.000000 0.006000 0.000000 0.006000 0.006000 0.000000 -0.006000 0.006000 0.000000 -0.006000 0.006000 0.000000 -0.006000 0.006000 0.000000 -0.006000 0.006000 0.000000 0.006000 0.006000 0.000000 0.006000 0.006000 0.000000 -0.227940 0.008941 0.000000 -0.006000 -0.009000 0.000000 -0.006000 -0.006000 0.000000 -0.006000 -0.006000 0.000000 -0.006000 -0.006000 0.000000 -0.000000 -0.006000 0.000000 -0.006000 -0.006000 0.000000 -0.006000 -0.006000 0.000000 -0.006000 -0.006000 0.000000 -0.006000 -0.006000 0.000000 -0.006000 -0.000000 0.000000 -0.000000 -0.000000 0.000000 -0.000000 0.006001 0.000000 0.000000 0.006009 0.000000 -0.006000 0.006000 0.000000 -0.006000 0.006000 0.000000 -0.006000 0.006000 0.000000 -0.006000 0.006000 0.000000 0.006000 0.006000 0.000000 0.006000 0.006000 0.000000 -0.237479 0.013179 0.000000 -0.006000 -0.015000 0.000000 -0.006000 -0.012000 0.000000 -0.006000 -0.005939 0.000000 -0.006000 -0.011969 0.000000 -0.000001 -0.005980 0.000000 0.000002 -0.005948 0.000000 -0.006001 0.000066 0.000000 -0.006001 0.000007 0.000000 0.000001 0.000022 0.000000 -0.000003 -0.014817 0.000000 0.000019 -0.110886 0.000000 0.000182 -0.077498 0.000000 -0.000196 -0.060007 0.000000 -0.006000 -0.054000 0.000000 -0.006000 -0.024000 0.000000 -0.006000 -0.036000 0.000000 -0.006013 -0.000006 0.000000 0.004703 -0.048024 0.000000 0.016739 -0.149665 0.000000 -0.339424 -0.125089 0.000000 -0.011734 -1.875027 0.000000 -0.011647 -1.896035 0.000000 -0.020169 -1.977100 0.000000 -0.009552 -1.866085 0.000000 -0.014644 -1.887043 0.000000 -0.012547 -1.878158 0.000000 0.004885 -1.869253 0.000000 -0.032835 -1.944137 0.000000 -0.000447 -1.860244 0.000000 -0.067144 -9.557774 0.000000 0.057037 -1.739327 0.000000 0.056173 -9.371437 0.000000 -0.136021 -1.519867 0.000000 0.000065 -9.208445 0.000000 0.005917 -1.265610 0.000000 -0.185566 -6.050970 0.000000 0.238382 -2.363413 0.000000 -0.166249 1.291345 0.000000 -0.859945 -4.071951 0.000000 1.662972 -2.853816 0.000000 -0.011750 -1.872037 0.000000 -0.011707 -1.941054 0.000000 -0.015674 -1.866048 0.000000 -0.008017 -1.866066 0.000000 -0.012901 -1.965111 0.000000 -0.005297 -1.938143 0.000000 0.007185 -1.833217 0.000000 -0.019790 -1.929146 0.000000 -0.006324 -1.966966 0.000000 -0.052474 -9.688453 0.000000 0.024291 -1.808295 0.000000 0.059409 -9.636502 0.000000 -0.130441 -1.412257 0.000000 0.013888 -9.687539 0.000000 0.010534 -1.298491 0.000000 -0.176342 -9.392035 0.000000 0.249898 -1.205611 0.000000 0.156963 -9.151075 0.000000 -1.651106 -0.872341 0.000000 3.499477 -8.429911 0.000000 -0.011745 -1.911033 0.000000 -0.011932 -1.854033 0.000000 -0.009541 -1.863049 0.000000 -0.001847 -1.878031 0.000000 -0.010197 -1.869069 0.000000 0.001492 -1.935044 0.000000 0.003163 -1.884210 0.000000 -0.021525 -1.914645 0.000000 0.010310 -1.925794 0.000000 -0.049115 -9.593756 0.000000 0.036381 -1.773992 0.000000 0.066369 -9.650330 0.000000 -0.121930 -1.447085 0.000000 0.024133 -9.682057 0.000000 0.013264 -1.306627 0.000000 -0.161952 -9.345787 0.000000 0.247920 -1.152686 0.000000 0.193409 -9.036724 0.000000 -1.483286 -0.913043 0.000000 3.303555 -8.338210 0.000000 -0.011684 -1.983023 0.000000 -0.013077 -1.836048 0.000000 -0.007676 -1.914060 0.000000 -0.008929 -1.917086 0.000000 -0.012868 -1.866015 0.000000 -0.000412 -1.908122 0.000000 0.018137 -1.920112 0.000000 -0.018859 -1.899183 0.000000 0.014852 -1.895901 0.000000 -0.038270 -9.782594 0.000000 0.024491 -1.715904 0.000000 0.089953 -9.661539 0.000000 -0.137347 -1.482926 0.000000 0.022196 -9.629138 0.000000 -0.003376 -1.243127 0.000000 -0.155610 -9.432688 0.000000 0.216962 -1.113881 0.000000 0.221696 -9.145300 0.000000 -1.533098 -1.013635 0.000000 3.354203 -8.249326 0.000000 -0.005984 -1.896067 0.000000 -0.007081 -1.863011 0.000000 -0.006287 -1.872083 0.000000 0.014024 -1.920001 0.000000 -0.001729 -1.887043 0.000000 -0.000825 -1.911174 0.000000 0.007290 -1.905022 0.000000 -0.033196 -1.902369 0.000000 0.011016 -1.919996 0.000000 -0.028382 -9.687299 0.000000 0.063412 -1.770211 0.000000 0.089004 -9.712437 0.000000 -0.120946 -1.532638 0.000000 0.010694 -9.644108 0.000000 -0.002064 -1.262372 0.000000 -0.149708 -9.444756 0.000000 0.268168 -1.108262 0.000000 0.186126 -9.254254 0.000000 -1.532784 -0.909455 