<VTKFile type="UnstructuredGrid" version="0.1" byte_order="LittleEndian">
  <UnstructuredGrid>
    <Piece NumberOfPoints="2000" NumberOfCells="0">
      <Points>
        <DataArray name="Position" type="Float32" NumberOfComponents="3" format="ascii">
-0.007509 -0.004508 0.000000 -0.007509 0.996995 0.000000 -0.007509 1.996995 0.000000 -0.007563 2.996995 0.000000 -0.010347 3.996996 0.000000 -0.010481 4.996996 0.000000 -0.015957 5.996996 0.000000 -0.010502 6.996996 0.000000 -0.023687 7.996997 0.000000 -0.010501 9.000000 0.000000 -0.007715 10.000001 0.000000 -0.032272 11.003003 0.000000 -0.007497 12.003004 0.000000 -0.007497 13.003004 0.000000 -0.028935 14.003004 0.000000 -0.007491 15.003004 0.000000 -0.007491 16.003005 0.000000 -0.072761 17.003005 0.000000 -0.010756 18.003005 0.000000 -0.107465 19.004508 0.000000 0.996992 -0.004508 0.000000 0.996808 0.996995 0.000000 0.992728 1.996995 0.000000 0.992467 2.996995 0.000000 0.992450 3.996996 0.000000 0.991028 4.996996 0.000000 0.984576 5.996996 0.000000 0.992446 6.996996 0.000000 0.978270 7.996996 0.000000 0.992697 9.000000 0.000000 0.992420 10.000001 0.000000 0.968255 11.003003 0.000000 0.994709 12.003004 0.000000 0.996009 13.003004 0.000000 0.971292 14.003004 0.000000 0.996361 15.003004 0.000000 0.995755 16.003005 0.000000 0.928150 17.003005 0.000000 0.989254 18.003005 0.000000 0.892804 19.004508 0.000000 1.996995 -0.004508 0.000000 1.996836 0.996693 0.000000 1.996151 1.996995 0.000000 1.992469 2.996988 0.000000 1.992485 3.996995 0.000000 1.992896 4.996995 0.000000 1.985010 5.996995 0.000000 1.992476 6.996996 0.000000 1.978553 7.997267 0.000000 1.992718 9.000000 0.000000 1.992424 10.000001 0.000000 1.968299 11.003004 0.000000 1.994731 12.003004 0.000000 1.996030 13.003004 0.000000 1.971293 14.003004 0.000000 1.996396 15.003004 0.000000 1.995781 16.003005 0.000000 1.928304 17.003005 0.000000 1.989291 18.003005 0.000000 1.892895 19.004512 0.000000 2.996995 -0.004508 0.000000 2.996844 0.995729 0.000000 2.996540 1.996181 0.000000 2.992518 2.996810 0.000000 2.992502 3.996990 0.000000 2.992908 4.996993 0.000000 2.985836 5.997131 0.000000 2.993995 6.997813 0.000000 2.978562 7.998253 0.000000 2.992922 9.000000 0.000000 2.992444 10.000001 0.000000 2.968401 11.002755 0.000000 2.994731 12.003005 0.000000 2.996032 13.003014 0.000000 2.971288 14.003018 0.000000 2.996613 15.003005 0.000000 2.995781 16.003392 0.000000 2.928274 17.003005 0.000000 2.989302 18.002994 0.000000 2.893702 19.004351 0.000000 3.996995 -0.005897 0.000000 3.996844 0.994907 0.000000 3.996547 1.995067 0.000000 3.992538 2.995153 0.000000 3.993101 3.996191 0.000000 3.993984 4.998866 0.000000 3.986001 5.999121 0.000000 3.994000 6.999147 0.000000 3.978560 7.999536 0.000000 3.993995 9.000008 0.000000 3.992445 10.000014 0.000000 3.968605 11.000862 0.000000 3.995851 12.003004 0.000000 3.996501 13.003004 0.000000 3.971367 14.003004 0.000000 3.996664 15.003005 0.000000 3.996374 16.003005 0.000000 3.928314 17.003006 0.000000 3.989284 18.003931 0.000000 3.893907 19.006066 0.000000 4.996996 -0.016433 0.000000 4.996820 0.987730 0.000000 4.996983 1.990962 0.000000 4.996103 2.993533 0.000000 4.993487 3.993694 0.000000 4.993999 4.993889 0.000000 4.986029 5.993871 0.000000 4.994017 6.994055 0.000000 4.978564 7.994024 0.000000 4.993997 8.996978 0.000000 4.992462 9.999225 0.000000 4.968623 10.999576 0.000000 4.995851 12.003004 0.000000 4.996501 13.003004 0.000000 4.971412 14.003004 0.000000 4.996674 15.003004 0.000000 4.996374 16.003005 0.000000 4.928335 17.003005 0.000000 4.989299 18.002972 0.000000 4.893912 19.004150 0.000000 5.996997 -0.007502 0.000000 5.996806 0.994035 0.000000 5.996998 1.994806 0.000000 5.996126 2.995151 0.000000 5.993527 3.997022 0.000000 5.994000 4.997820 0.000000 5.986055 5.999102 0.000000 5.994845 6.999206 0.000000 5.978495 8.000197 0.000000 5.994000 9.000300 0.000000 5.992611 10.000979 0.000000 5.968593 11.002357 0.000000 5.995859 12.003004 0.000000 5.996509 13.003004 0.000000 5.971430 14.003004 0.000000 5.996677 15.003005 0.000000 5.996385 16.003005 0.000000 5.928328 17.003006 0.000000 5.989259 18.004017 0.000000 5.893983 19.005913 0.000000 6.996997 -0.005947 0.000000 6.996812 0.994862 0.000000 6.996998 1.995718 0.000000 6.996125 2.996210 0.000000 6.993458 3.996259 0.000000 6.995083 4.997719 0.000000 6.986204 5.998308 0.000000 6.996859 6.999123 0.000000 6.978495 7.999277 0.000000 6.996986 8.999999 0.000000 6.994694 10.000001 0.000000 6.968670 11.002765 0.000000 6.995871 12.003004 0.000000 6.996521 13.003023 0.000000 6.971509 14.003033 0.000000 6.996688 15.003005 0.000000 6.996394 16.003327 0.000000 6.928540 17.003005 0.000000 6.989272 18.002983 0.000000 6.894103 19.004323 0.000000 7.996997 -0.004508 0.000000 7.996816 0.996063 0.000000 7.996998 1.996800 0.000000 7.996129 2.996950 0.000000 7.993437 3.996997 0.000000 7.996066 4.996997 0.000000 7.986229 5.996993 0.000000 7.996904 6.997177 0.000000 7.978432 7.997862 0.000000 7.996992 8.999999 0.000000 7.994702 10.000001 0.000000 7.968895 11.003005 0.000000 7.996984 12.003004 0.000000 7.996984 13.003004 0.000000 7.971539 14.003003 0.000000 7.996781 15.003004 0.000000 7.996981 16.003005 0.000000 7.928573 17.003005 0.000000 7.989226 18.003005 0.000000 7.894102 19.004517 0.000000 8.996997 -0.004508 0.000000 8.996817 0.996972 0.000000 8.996999 1.996996 0.000000 8.996133 2.996998 0.000000 8.993468 3.997000 0.000000 8.996985 4.997011 0.000000 8.986093 5.996996 0.000000 8.996905 6.996996 0.000000 8.978420 7.996909 0.000000 8.996993 9.000000 0.000000 8.994707 10.000001 0.000000 8.969086 11.003003 0.000000 8.996995 12.003004 0.000000 8.996993 13.003004 0.000000 8.971531 14.003004 0.000000 8.996981 15.003004 0.000000 8.996993 16.003005 0.000000 8.928586 17.003005 0.000000 8.989185 18.003005 0.000000 8.894354 19.004508 0.000000 9.996998 -0.004508 0.000000 9.996817 0.996995 0.000000 9.996999 1.996995 0.000000 9.996137 2.996995 0.000000 9.993501 3.996995 0.000000 9.996993 4.996996 0.000000 9.986095 5.996996 0.000000 9.996984 6.996996 0.000000 9.978501 7.996997 0.000000 9.996993 9.000000 0.000000 9.994709 10.000001 0.000000 9.968975 11.003003 0.000000 9.996995 12.003004 0.000000 9.996995 13.003004 0.000000 9.971535 14.003004 0.000000 9.996993 15.003004 0.000000 9.996995 16.003005 0.000000 9.928620 17.003005 0.000000 9.988397 18.003005 0.000000 9.894399 19.004508 0.000000 10.996998 -0.004508 0.000000 10.996821 0.996995 0.000000 10.996999 1.996995 0.000000 10.996140 2.996995 0.000000 10.993545 3.996996 0.000000 10.997001 4.996996 0.000000 10.986111 5.996996 0.000000 10.997001 6.996996 0.000000 10.978647 7.996997 0.000000 10.996999 9.000000 0.000000 10.994709 10.000001 0.000000 10.968962 11.003003 0.000000 10.996996 12.003004 0.000000 10.996996 13.003004 0.000000 10.971516 14.003004 0.000000 10.996996 15.003004 0.000000 10.996996 16.003005 0.000000 10.928654 17.003005 0.000000 10.987903 18.003005 0.000000 10.894626 19.004508 0.000000 11.996998 -0.004508 0.000000 11.996821 0.996995 0.000000 11.996999 1.996995 0.000000 11.996139 2.996995 0.000000 11.993577 3.996996 0.000000 11.997001 4.996996 0.000000 11.986010 5.996996 0.000000 11.997001 6.996996 0.000000 11.978627 7.996997 0.000000 11.996999 9.000000 0.000000 11.994711 10.000001 0.000000 11.969034 11.003003 0.000000 11.996996 12.003004 0.000000 11.996996 13.003004 0.000000 11.971493 14.003004 0.000000 11.996996 15.003004 0.000000 11.996996 16.003005 0.000000 11.928692 17.003005 0.000000 11.987411 18.003005 0.000000 11.894645 19.004508 0.000000 12.996999 -0.004508 0.000000 12.996822 0.996995 0.000000 12.997000 1.996995 0.000000 12.996140 2.996995 0.000000 12.993583 3.996996 0.000000 12.997001 4.996996 0.000000 12.986095 5.996996 0.000000 12.997001 6.996996 0.000000 12.978614 7.996997 0.000000 12.997000 9.000000 0.000000 12.996982 10.000001 0.000000 12.969129 11.003003 0.000000 12.996996 12.003004 0.000000 12.996996 13.003004 0.000000 12.971513 14.003004 0.000000 12.996996 15.003004 0.000000 12.996996 16.003005 0.000000 12.928653 17.003005 0.000000 12.987284 18.003005 0.000000 12.894653 19.004508 0.000000 13.996999 -0.004508 0.000000 13.996824 0.996995 0.000000 13.997000 1.996995 0.000000 13.996138 2.996995 0.000000 13.993563 3.996996 0.000000 13.997001 4.996996 0.000000 13.986032 5.996996 0.000000 13.997001 6.996996 0.000000 13.978661 7.996997 0.000000 13.997000 9.000000 0.000000 13.996992 10.000001 0.000000 13.969214 11.003003 0.000000 13.996996 12.003004 0.000000 13.996996 13.003004 0.000000 13.971531 14.003004 0.000000 13.996996 15.003004 0.000000 13.996996 16.003005 0.000000 13.928589 17.003005 0.000000 13.986769 18.003005 0.000000 13.894698 19.004508 0.000000 14.996999 -0.004508 0.000000 14.996823 0.996995 0.000000 14.997000 1.996995 0.000000 14.996149 2.996995 0.000000 14.993563 3.996996 0.000000 14.997002 4.996996 0.000000 14.986142 5.996996 0.000000 14.997002 6.996996 0.000000 14.978719 7.996997 0.000000 14.997000 9.000000 0.000000 14.996992 10.000001 0.000000 14.969242 11.003003 0.000000 14.997000 12.003004 0.000000 14.997000 13.003004 0.000000 14.971567 14.003004 0.000000 14.996997 15.003004 0.000000 14.996997 16.003005 0.000000 14.928575 17.003005 0.000000 14.986602 18.003005 0.000000 14.894682 19.004508 0.000000 15.996999 -0.004508 0.000000 15.996824 0.996995 0.000000 15.997001 1.996995 0.000000 15.996151 2.996995 0.000000 15.993566 3.996996 0.000000 15.997002 4.996996 0.000000 15.986076 5.996996 0.000000 15.997002 6.996996 0.000000 15.978677 7.996997 0.000000 15.997001 9.000000 0.000000 15.996995 10.000001 0.000000 15.969215 11.003003 0.000000 15.997002 12.003004 0.000000 15.997002 13.003004 0.000000 15.971590 14.003004 0.000000 15.996997 15.003004 0.000000 15.996997 16.003005 0.000000 15.928541 17.003005 0.000000 15.986338 18.003005 0.000000 15.894623 19.004508 0.000000 16.997000 -0.004508 0.000000 16.996824 0.996995 0.000000 16.997001 1.996995 0.000000 16.996151 2.996995 0.000000 16.993572 3.996996 0.000000 16.997002 4.996996 0.000000 16.986075 5.996996 0.000000 16.997002 6.996996 0.000000 16.978680 7.996997
[...]
      <PointData Vectors="vector">
        <DataArray type="Float32" Name="Velocity" NumberOfComponents="3" format="ascii">
-0.015000 -0.009000 0.000000 -0.015000 -0.006000 0.000000 -0.015000 -0.006000 0.000000 -0.021000 -0.006000 0.000000 -0.021000 -0.006000 0.000000 -0.021000 -0.006000 0.000000 -0.369058 -0.006000 0.000000 -0.021000 -0.006000 0.000000 -0.381004 -0.006000 0.000000 -0.021000 0.000000 0.000000 -0.021000 0.000000 0.000000 -0.405010 0.006000 0.000000 -0.015000 0.006000 0.000000 -0.015000 0.006000 0.000000 -0.411010 0.006000 0.000000 -0.015000 0.006000 0.000000 -0.015000 0.006000 0.000000 -0.795016 0.006000 0.000000 -0.321001 0.006000 0.000000 -0.885013 0.009000 0.000000 -0.006000 -0.009000 0.000000 -0.048000 -0.005988 0.000000 -0.018000 -0.006000 0.000000 -0.018000 -0.006000 0.000000 -0.018000 -0.006000 0.000000 -0.018000 -0.006000 0.000000 -0.420049 -0.005999 0.000000 -0.018000 -0.006000 0.000000 -0.323998 -0.006026 0.000000 -0.018000 0.000000 0.000000 -0.018000 0.000000 0.000000 -0.455998 0.006000 0.000000 -0.018000 0.006000 0.000000 -0.018000 0.006000 0.000000 -0.426013 0.006000 0.000000 -0.018000 0.006000 0.000000 -0.018000 0.006000 0.000000 -0.696002 0.006000 0.000000 -0.264003 0.006000 0.000000 -0.996037 0.008999 0.000000 -0.006000 -0.009000 0.000000 -0.041999 -0.011936 0.000000 -0.017979 -0.005995 0.000000 -0.018022 -0.005999 0.000000 -0.018002 -0.006000 0.000000 -0.017997 -0.006000 0.000000 -0.479987 -0.006085 0.000000 -0.018000 -0.006000 0.000000 -0.390010 -0.000976 0.000000 -0.018000 0.000000 0.000000 -0.018000 0.000000 0.000000 -0.408033 0.006043 0.000000 -0.018000 0.006000 0.000000 -0.018000 0.006000 0.000000 -0.482989 0.005992 0.000000 -0.018000 0.006000 0.000000 -0.018000 0.006000 0.000000 -0.789018 0.006000 0.000000 -0.288001 0.006003 0.000000 -0.990029 0.009110 0.000000 -0.006000 -0.009000 0.000000 -0.042000 -0.011981 0.000000 -0.011971 -0.011985 0.000000 -0.012030 -0.012001 0.000000 -0.018006 -0.005997 0.000000 -0.017995 -0.006009 0.000000 -0.270070 -0.002639 0.000000 -0.011998 -0.000007 0.000000 -0.345001 -0.000347 0.000000 -0.018000 -0.000000 0.000000 -0.018000 -0.000000 0.000000 -0.408003 0.002696 0.000000 -0.017990 0.006000 0.000000 -0.017966 0.006000 0.000000 -0.477062 0.006020 0.000000 -0.017967 0.006000 0.000000 -0.018003 0.012000 0.000000 -0.759006 0.005997 0.000000 -0.261003 0.005027 0.000000 -0.810014 0.006530 0.000000 -0.006000 -0.015000 0.000000 -0.047996 -0.010987 0.000000 -0.011985 -0.011912 0.000000 -0.018016 -0.011929 0.000000 -0.275995 -0.005327 0.000000 -0.012013 0.000042 0.000000 -0.347959 -0.000634 0.000000 -0.011909 0.012027 0.000000 -0.345048 0.008358 0.000000 -0.012000 0.000032 0.000000 -0.018000 0.000039 0.000000 -0.401997 -0.000746 0.000000 -0.012000 0.006000 0.000000 -0.012000 0.006000 0.000000 -0.432002 0.005989 0.000000 -0.012000 0.006000 0.000000 -0.012000 0.006000 0.000000 -0.750011 0.006006 0.000000 -0.315001 0.008220 0.000000 -0.948085 0.020534 0.000000 -0.006000 -0.033000 0.000000 -0.048000 -0.031300 0.000000 -0.006000 -0.018105 0.000000 -0.011953 -0.042082 0.000000 -0.186003 -0.019338 0.000000 -0.011903 -0.006065 0.000000 -0.258353 -0.024263 0.000000 -0.011241 -0.012053 0.000000 -0.393052 -0.029281 0.000000 -0.012000 -0.006065 0.000000 -0.018000 -0.000093 0.000000 -0.507210 -0.006940 0.000000 -0.012000 0.006000 0.000000 -0.012000 0.006000 0.000000 -0.468030 0.005999 0.000000 -0.012000 0.006000 0.000000 -0.012000 0.006000 0.000000 -0.812985 0.005992 0.000000 -0.321023 0.003095 0.000000 -0.936131 0.002790 0.000000 -0.006000 -0.015000 0.000000 -0.036005 -0.010731 0.000000 -0.006000 -0.011922 0.000000 -0.099000 -0.012008 0.000000 -0.123018 -0.003497 0.000000 -0.012012 -0.005958 0.000000 -0.300055 0.011151 0.000000 -0.017990 0.000051 0.000000 -0.363140 0.006277 0.000000 -0.011987 0.006033 0.000000 -0.012003 0.000054 0.000000 -0.411647 0.008812 0.000000 -0.011999 0.006000 0.000000 -0.012000 0.006000 0.000000 -0.473975 0.005963 0.000000 -0.012000 0.006000 0.000000 -0.012000 0.006000 0.000000 -0.771018 0.006009 0.000000 -0.273025 0.009555 0.000000 -0.935977 0.021351 0.000000 -0.006000 -0.015000 0.000000 -0.042000 -0.012143 0.000000 -0.006000 -0.011997 0.000000 -0.087000 -0.006040 0.000000 -0.137955 -0.013071 0.000000 -0.006018 -0.000009 0.000000 -0.330030 0.001555 0.000000 -0.018000 0.000018 0.000000 -0.548889 0.001887 0.000000 -0.006000 -0.000000 0.000000 -0.012000 -0.000000 0.000000 -0.473222 0.002036 0.000000 -0.011973 0.006000 0.000000 -0.011959 0.006000 0.000000 -0.450090 0.006082 0.000000 -0.011955 0.006000 0.000000 -0.012002 0.012000 0.000000 -0.792016 0.005994 0.000000 -0.303082 0.004084 0.000000 -0.860982 0.005454 0.000000 -0.006000 -0.009000 0.000000 -0.060000 -0.011958 0.000000 -0.006000 -0.011980 0.000000 -0.101989 -0.011861 0.000000 -0.213027 -0.005431 0.000000 -0.017931 -0.006000 0.000000 -0.273191 -0.003104 0.000000 -0.011968 -0.000034 0.000000 -0.432358 -0.001529 0.000000 -0.006000 0.000000 0.000000 -0.012000 0.000000 0.000000 -0.456189 0.006100 0.000000 -0.006000 0.006000 0.000000 -0.006000 0.006000 0.000000 -0.405009 0.005955 0.000000 -0.006000 0.006000 0.000000 -0.006000 0.006000 0.000000 -0.804038 0.006001 0.000000 -0.311989 0.006015 0.000000 -0.897129 0.009239 0.000000 -0.006000 -0.009000 0.000000 -0.048001 -0.011676 0.000000 -0.005996 -0.006000 0.000000 -0.107989 -0.005998 0.000000 -0.210033 -0.006000 0.000000 -0.005982 -0.000000 0.000000 -0.272884 -0.005982 0.000000 -0.012000 -0.006002 0.000000 -0.374584 -0.008447 0.000000 -0.006000 0.000000 0.000000 -0.012000 0.000000 0.000000 -0.531215 0.006000 0.000000 -0.006000 0.006000 0.000000 -0.006000 0.006000 0.000000 -0.356994 0.006001 0.000000 -0.006000 0.006000 0.000000 -0.006000 0.006000 0.000000 -0.726003 0.006000 0.000000 -0.308245 0.006000 0.000000 -1.008075 0.008993 0.000000 -0.006000 -0.009000 0.000000 -0.042000 -0.005999 0.000000 -0.006000 -0.006000 0.000000 -0.108000 -0.006000 0.000000 -0.233995 -0.006000 0.000000 -0.006000 -0.006000 0.000000 -0.227983 -0.006000 0.000000 -0.006000 -0.006000 0.000000 -0.431999 -0.005957 0.000000 -0.006000 -0.000000 0.000000 -0.012000 0.000000 0.000000 -0.479745 0.006000 0.000000 -0.006000 0.006000 0.000000 -0.006000 0.006000 0.000000 -0.483020 0.006000 0.000000 -0.006000 0.006000 0.000000 -0.006000 0.006000 0.000000 -0.786000 0.006000 0.000000 -0.196374 0.006000 0.000000 -1.001799 0.009000 0.000000 -0.006000 -0.009000 0.000000 -0.045000 -0.006000 0.000000 -0.006000 -0.006000 0.000000 -0.123000 -0.006000 0.000000 -0.234002 -0.006000 0.000000 -0.006000 -0.006000 0.000000 -0.297164 -0.006000 0.000000 -0.006000 -0.006000 0.000000 -0.327227 -0.006001 0.000000 -0.006000 0.000000 0.000000 -0.012000 0.000000 0.000000 -0.530976 0.006000 0.000000 -0.006000 0.006000 0.000000 -0.006000 0.006000 0.000000 -0.503987 0.006000 0.000000 -0.006000 0.006000 0.000000 -0.006000 0.006000 0.000000 -0.774038 0.006000 0.000000 -0.215857 0.006000 0.000000 -0.972100 0.009000 0.000000 -0.006000 -0.009000 0.000000 -0.045000 -0.006000 0.000000 -0.006000 -0.006000 0.000000 -0.093001 -0.006000 0.000000 -0.203993 -0.006000 0.000000 -0.006000 -0.006000 0.000000 -0.333002 -0.006000 0.000000 -0.006000 -0.006000 0.000000 -0.425827 -0.006000 0.000000 -0.006000 0.000000 0.000000 -0.012000 0.000000 0.000000 -0.456539 0.006000 0.000000 -0.006000 0.006000 0.000000 -0.006000 0.006000 0.000000 -0.477010 0.006000 0.000000 -0.006000 0.006000 0.000000 -0.006000 0.006000 0.000000 -0.765016 0.006000 0.000000 -0.239541 0.006000 0.000000 -0.990091 0.009000 0.000000 -0.006000 -0.009000 0.000000 -0.048000 -0.006000 0.000000 -0.006000 -0.006000 0.000000 -0.105000 -0.006000 0.000000 -0.098993 -0.006000 0.000000 -0.006000 -0.006000 0.000000 -0.315246 -0.006000 0.000000 -0.006000 -0.006000 0.000000 -0.387094 -0.006000 0.000000 -0.006000 0.000000 0.000000 -0.006000 0.000000 0.000000 -0.527669 0.006000 0.000000 -0.006000 0.006000 0.000000 -0.006000 0.006000 0.000000 -0.468043 0.006000 0.000000 -0.006000 0.006000 0.000000 -0.006000 0.006000 0.000000 -0.828069 0.006000 0.000000 -0.246527 0.006000 0.000000 -0.936538 0.009000 0.000000 -0.006000 -0.009000 0.000000 -0.045000 -0.006000 0.000000 -0.006000 -0.006000 0.000000 -0.123000 -0.006000 0.000000 -0.213001 -0.006000 0.000000 -0.006000 -0.006000 0.000000 -0.302753 -0.006000 0.000000 -0.006000 -0.006000 0.000000 -0.371999 -0.006000 0.000000 -0.006000 0.000000 0.000000 -0.006000 0.000000 0.000000 -0.557648 0.006000 0.000000 -0.006000 0.006000 0.000000 -0.006000 0.006000 0.000000 -0.491932 0.006000 0.000000 -0.006000 0.006000 0.000000 -0.006000 0.006000 0.000000 -0.737934 0.006000 0.000000 -0.269583 0.006000 0.000000 -0.896882 0.009000 0.000000 -0.006000 -0.009000 0.000000 -0.045000 -0.006000 0.000000 -0.006000 -0.006000 0.000000 -0.090000 -0.006000 0.000000 -0.185995 -0.006000 0.000000 -0.006000 -0.006000 0.000000 -0.350941 -0.006000 0.000000 -0.006000 -0.006000 0.000000 -0.482966 -0.006000 0.000000 -0.006000 0.000000 0.000000 -0.006000 0.000000 0.000000 -0.495003 0.006000 0.000000 -0.006000 0.006000 0.000000 -0.006000 0.006000 0.000000 -0.474006 0.006000 0.000000 -0.006000 0.006000 0.000000 -0.006000 0.006000 0.000000 -0.750064 0.006000 0.000000 -0.276431 0.006000 0.000000 -0.978271 0.009000 0.000000 -0.006000 -0.009000 0.000000 -0.045000 -0.006000 0.000000 -0.006000 -0.006000 0.000000 -0.090000 -0.006000 0.000000 -0.186010 -0.006000 0.000000 -0.006000 -0.006000 0.000000 -0.240084 -0.006000 0.000000 -0.006000 -0.006000 0.000000 -0.417114 -0.006000 0.000000 -0.006000 0.000000 0.000000 -0.006000 0.000000 0.000000 -0.456673 0.006000 0.000000 -0.006000 0.006000 0.000000 -0.006000 0.006000 0.000000 -0.387157 0.006000 0.000000 -0.006000 0.006000 0.000000 -0.006000 0.006000 0.000000 -0.750048 0.006000 0.000000 -0.221473 0.006000 0.000000 -1.064763 0.009000 0.000000 -0.006000 -0.009000 0.000000 -0.057000 -0.006000 0.000000 -0.006000 -0.006000 0.000000 -0.111000 -0.006000 0.000000 -0.189072 -0.006000 0.000000 -0.006000 -0.006000 0.000000 -0.245845 -0.006000 0.000000 -0.006000 -0.006000 0.000000 -0.444148 -0.006000 0.000000 -0.006000 0.000000 0.000000 -0.006000 0.000000 0.000000 -0.488752 0.006000 0.000000 -0.006000 0.006000 0.000000 -0.006000 0.006000 0.000000 -0.401946 0.006000 0.000000 -0.006000 0.006000 0.000000 -0.006000 0.006000 0.000000 -0.786212 0.006000 0.000000 -0.309529 0.006000 0.000000 -0.927018 0.009000 0.000000 -0.006000 -0.009000 0.000000 -0.036000 -0.006000 0.000000 -0.006000 -0.006000 0.000000 -0.102000 -0.006000 0.000000 -0.167928 -0.006000 0.000000 -0.006000 -0.006000 0.000000 -0.198172 -0.006000 0.000000 -0.006000 -0.006000 0.000000 -0.297292 -0.006000 0.000000 -0.006000 0.000000 0.000000 -0.006000 0.000000 0.000000 -0.456265 0.006000 0.000000 -0.006000 0.006000 0.000000 -0.006000 0.006000 0.000000 -0.411025 0.006000 0.000000 -0.006000 0.006000 0.000000 -0.006000 0.006000 0.000000 -0.780025 0.006000 0.000000 -0.312123 0.006000 0.000000 -0.861539 0.009000 0.000000 -0.006000 -0.009000 0.000000 -0.048000 -0.006000 0.000000 -0.006000 -0.006000 0.000000 -0.108000 -0.006000 0.000000 -0.167999 -0.006000 0.000000 -0.006000 -0.006000 0.000000 -0.269837 -0.006000 0.000000 -0.006000 -0.006000 0.000000 -0.429111 -0.006000 0.000000 -0.006000 0.000000 0.000000 -0.006000 0.000000 0.000000 -0.425808 0.006000 0.000000 -0.006000 0.006000 0.000000 -0.006000 0.006000 0.000000 -0.417048 0.006000 0.000000 -0.006000 0.006000 0.000000 -0.006000 0.006000 0.000000 -0.746574 0.006000 0.000000 -0.311206 0.006000 0.000000 -0.970751 0.009000 0.000000 -0.006000 -0.009000 0.000000 -0.051001 -0.006000 0.000000 -0.006000 -0.006000 0.000000 -0.114001 -0.006000 0.000000 -0.174001 -0.006000 0.000000 -0.006000 -0.006000 0.000000 -0.273263 -0.006000 0.000000 -0.006000 -0.006000 0.000000 -0.402907 -0.006000 0.000000 -0.006000 0.000000 0.000000 -0.006000 0.000000 0.000000 -0.428836 0.006000 0.000000 -0.006000 0.006000 0.000000 -0.006000 0.006000 0.000000 -0.456054 0.006000 0.000000 -0.006000 0.006000 0.000000 -0.006000 0.006000 0.000000 -0.771000 0.006000 0.000000 -0.314998 0.006000 0.000000 -0.881984 0.009000 0.000000 -0.006000 -0.009000 0.000000 -0.048001 -0.006000 0.000000 -0.006000 -0.006000 0.000000 -0.096000 -0.006000 0.000000 -0.174035 -0.006000 0.000000 -0.006000 -0.006000 0.000000 -0.284851 -0.006000 0.000000 -0.006000 -0.006000 0.000000 -0.307694 -0.006000 0.000000 -0.006000 0.000000 0.000000 -0.006000 0.000000 0.000000 -0.505061 0.006000 0.000000 -0.006000 0.006000 0.000000 -0.000000 0.006000 0.000000 -0.455958 0.006000 0.000000 -0.006000 0.006000 0.000000 -0.000000 0.006000 0.000000 -0.729769 0.006000 0.000000 -0.289801 0.006000 0.000000 -0.941131 0.009000 0.000000 -0.006000 -0.009000 0.000000 -0.035998 -0.006000 0.000000 -0.006000 -0.006000 0.000000 -0.114002 -0.006000 0.000000 -0.185965 -0.006000 0.000000 -0.006000 -0.006000 0.000000 -0.261036 -0.006000 0.000000 -0.006000 -0.006000 0.000000 -0.357439 -0.006000 0.000000 -0.006000 0.000000 0.000000 -0.006000 0.000000 0.000000 -0.377644 0.006000 0.000000 -0.000000 0.006000 0.000000 -0.000000 0.006000 0.000000 -0.426121 0.006000 0.000000 0.000000 0.006000 0.000000 0.000000 0.006000 0.000000 -0.726187 0.006000 0.000000 -0.297600 0.006000 0.000000 -0.816893 0.009000 0.000000 -0.006000 -0.009000 0.000000 -0.036001 -0.006000 0.000000 -0.006000 -0.006000 0.000000 -0.107998 -0.006000 0.000000 -0.191998 -0.006000 0.000000 -0.006000 -0.006000 0.000000 -0.291046 -0.006000 0.000000 -0.006000 -0.006000 0.000000 -0.332970 -0.006000 0.000000 -0.006000 0.000000 0.000000 -0.006000 0.000000 0.000000 -0.501329 0.005999 0.000000 -0.000000 0.006000 0.000000 -0.000000 0.006000 0.000000 -0.440982 0.006000 0.000000 0.000000 0.006000 0.000000 0.000000 0.006000 0.000000 -0.786278 0.005999 0.000000 -0.381724 0.006000 0.000000 -0.954466 0.008993 0.000000 -0.006000 -0.009000 0.000000 -0.036002 -0.006000 0.000000 -0.006000 -0.006000 0.000000 -0.108004 -0.006000 0.000000 -0.192068 -0.006000 0.000000 -0.006000 -0.006000 0.000000 -0.335811 -0.006000 0.000000 -0.006000 -0.006000 0.000000 -0.432058 -0.006005 0.000000 -0.006000 0.000000 0.000000 -0.006000 0.000000 0.000000 -0.588580 0.006026 0.000000 -0.000000 0.006000 0.000000 -0.000000 0.006000 0.000000 -0.489212 0.006000 0.000000 -0.000000 0.006000 0.000000 0.000000 0.006000 0.000000 -0.768585 0.006024 0.000000 -0.301858 0.006001 0.000000 -0.911160 0.009180 0.000000 -0.006000 -0.009000 0.000000 -0.041999 -0.005991 0.000000 -0.006000 -0.006000 0.000000 -0.108009 -0.006003 0.000000 -0.190504 -0.006004 0.000000 -0.006000 -0.006000 0.000000 -0.348766 -0.005995 0.000000 -0.000000 -0.006000 0.000000 -0.293818 -0.005842 0.000000 -0.006000 0.000000 0.000000 -0.006000 0.000000 0.000000 -0.557763 0.005376 0.000000 -0.000000 0.006000 0.000000 -0.000000 0.006000 0.000000 -0.450023 0.005980 0.000000 0.000000 0.006000 0.000000 -0.000000 0.006000 0.000000 -0.733801 0.005450 0.000000 -0.314741 0.005900 0.000000 -0.921577 0.005693 0.000000 -0.006000 -0.009000 0.000000 -0.042006 -0.011507 0.000000 0.000015 -0.012000 0.000000 -0.104218 -0.005589 0.000000 0.454453 -0.005971 0.000000 -0.005942 0.006000 0.000000 -0.234246 -0.006253 0.000000 -0.000000 -0.006002 0.000000 -0.414298 -0.007578 0.000000 -0.006000 0.000000 0.000000 -0.006000 0.000000 0.000000 -0.597597 0.012912 0.000000 -0.000000 0.006000 0.000000 -0.000000 0.006000 0.000000 -0.441592 0.007306 0.000000 0.006000 0.005997 0.000000 -0.000000 0.006000 0.000000 -0.816411 0.019217 0.000000 -0.359624 0.010727 0.000000 -0.881906 0.044440 0.000000 -0.006000 -0.009000 0.000000 -0.041998 -0.012396 0.000000 0.000001 -0.011999 0.000000 0.498930 -0.012851 0.000000 0.068348 -0.008099 0.000000 0.000004 -0.006000 0.000000 -0.249119 -0.012169 0.000000 0.006186 -0.011996 0.000000 -0.307181 -0.011780 0.000000 -0.006000 0.000000 0.000000 -0.000000 0.000000 0.000000 -0.622387 -0.030371 0.000000 0.000004 -0.000000 0.000000 0.006022 0.000001 0.000000 -0.227730 -0.019209 0.000000 0.006021 -0.006012 0.000000 0.000901 0.012001 0.000000 -2.061072 -0.202157 0.000000 -0.412595 -0.099560 0.000000 -1.312937 -0.160131 0.000000 -0.006000 -0.009000 0.000000 -0.048713 -0.001658 0.000000 0.006052 0.041999 0.000000 -0.189359 0.079006 0.000000 -0.078774 0.075451 0.000000 0.000279 0.080999 0.000000 -0.239613 0.165372 0.000000 -0.004451 0.168000 0.000000 -0.461333 0.137814 0.000000 -0.002558 0.197978 0.000000 0.000181 0.090000 0.000000 -0.329470 0.186092 0.000000 0.008448 0.173933 0.000000 0.005890 0.149999 0.000000 -0.267681 0.152264 0.000000 0.010377 0.173974 0.000000 0.012084 0.168018 0.000000 2.224826 -0.030341 0.000000 -0.461940 0.645475 0.000000 3.144721 1.402720 0.000000 -0.005262 -1.089031 0.000000 -0.109307 -1.062131 0.000000 -0.002109 -1.188029 0.000000 -0.140372 -1.050906 0.000000 -0.013387 -1.103816 0.000000 0.095604 -1.055608 0.000000 -2.304327 -1.064768 0.000000 0.263314 -0.966532 0.000000 -1.053009 -1.150772 0.000000 0.169137 -1.195137 0.000000 0.233876 -1.219638 0.000000 -0.081055 -1.262525 0.000000 0.196360 -1.273901 0.000000 0.083678 -1.368866 0.000000 -0.403309 -1.230098 0.000000 -0.033268 -1.346392 0.000000 1.459447 -1.352735 0.000000 -0.223213 -1.864732 0.000000 1.897848 0.946331 0.000000 2.513862 1.351019 0.000000 -0.009425 -8.481121 0.000000 -0.008485 -8.529613 0.000000 0.009666 -6.954654 0.000000 0.173798 -6.634413 0.000000 -0.510408 -5.906113 0.000000 0.442933 -3.463836 0.000000 2.080117 -5.650847 0.000000 -0.839795 -1.700153 0.000000 3.162737 -4.276114 0.000000 -2.806929 -3.235278 0.000000 1.919843 0.313853 0.000000 0.800672 0.028648 0.000000 -0.689092 0.094208 0.000000 1.519491 0.265657 0.000000 0.298983 0.224679 0.000000 -0.774770 3.021009 0.000000 1.869982 3.103369 0.000000 0.131806 1.461264 0.000000 -2.447944 -2.365801 0.000000 7.045186 -2.237465 0.000000 -0.011279 -8.697216 0.000000 0.025019 -8.719941 0.000000 0.234010 -7.844778 0.000000 0.284908 -9.965319 0.000000 0.056287 -4.376244 0.000000 -1.018481 -8.640192 0.000000 2.207297 -3.006679 0.000000 -4.298810 -6.951010 0.000000 3.784605 -4.405976 0.000000 -2.088243 -3.751940 0.000000 1.521856 -7.596054 0.000000 4.338734 -2.566520 0.000000 3.213070 2.412862 0.000000 2.219032 -7.321161 0.000000 -0.214706 -3.134062 0.000000 -2.605397 -0.474696 0.000000 2.686248 -3.332690 0.000000 -1.523711 1.487666 0.000000 1.723938 0.377371 0.000000 -2.526350 -7.925603 0.000000 -0.011549 -8.535153 0.000000 0.025031 -8.623249 0.000000 0.511333 -7.684244 0.000000 0.307895 -9.715630 0.000000 0.254032 -3.958501 0.000000 -1.145112 -8.429447 0.000000 2.230017 -3.171288 0.000000 -3.773137 -6.514421 0.000000 4.651423 -5.003690 0.000000 -4.048026 -2.757999 0.000000 0.995943 -6.975086 0.000000 4.508453 -1.813121 0.000000 -3.316786 -0.948916 0.000000 2.237711 -6.587193 0.000000 0.988581 -1.706107 0.000000 -2.705826 -5.886450 0.000000 -0.698464 -12.245745 0.000000 -3.014025 -4.492872 0.000000 12.114383 -5.791891 0.000000 3.290048 -1.609369 0.000000 -0.007919 -8.721362 0.000000 0.004499 -8.814607 0.000000 -0.172969 -7.661007 0.000000 0.312469 -10.112873 0.000000 0.027446 -3.251141 0.000000 -0.328806 -7.245255 0.000000 2.279414 -4.675325 0.000000 -3.846137 -5.599776 0.000000 3.800779 -5.190791 0.000000 -4.042016 -2.786056 0.000000 0.530643 -6.985979 0.000000 4.396112 -1.868125 0.000000 -3.007662 -1.986593 0.000000 2.232226 -9.398231 0.000000 1.555725 -3.362754 0.000000 -4.230955 -7.285412 0.000000 -1.264561 -11.958181 0.000000 -2.891442 -7.799616 0.000000 10.950928 -3.433844 0.000000 0.845749 -9.084595 0.000000 -0.004428 -8.739248 0.000000 0.020056 -8.622662 0.000000 -0.163102 -7.802679 0.000000 0.409786 -9.792200 0.000000 0.155880 -3.763362 0.000000 -0.734569 -8.393595 0.000000 2.527079 -3.350051 0.000000 -4.042899 -5.940452 0.000000 4.034986 -4.633128 0.000000 -4.124745 -2.618371 0.000000 0.649994 -7.325747 0.000000 5.023039 -2.882178 0.000000 -3.173226 -2.232660 0.000000 2.502177 -9.748835 0.000000 2.156491 -3.222314 0.000000 -3.445057 -8.718818 0.000000 0.420297 -3.600819 0.000000 4.041645 -8.781500 0.000000 9.299672 -8.503199 0.000000 14.660544 -7.371598 0.00000