<VTKFile type="UnstructuredGrid" version="0.1" byte_order="LittleEndian">
  <UnstructuredGrid>
    <Piece NumberOfPoints="2000" NumberOfCells="0">
      <Points>
        <DataArray name="Position" type="Float32" NumberOfComponents="3" format="ascii">
-0.003886 -0.002335 0.000000 -0.003886 0.998444 0.000000 -0.003886 1.998444 0.000000 -0.003886 2.998444 0.000000 -0.005275 3.998445 0.000000 -0.005409 4.998445 0.000000 -0.005395 5.998445 0.000000 -0.005430 6.998445 0.000000 -0.003877 7.998446 0.000000 -0.005429 9.000000 0.000000 -0.003873 10.000001 0.000000 -0.003872 11.001554 0.000000 -0.003874 12.001555 0.000000 -0.003874 13.001555 0.000000 -0.003874 14.001555 0.000000 -0.003868 15.001555 0.000000 -0.003868 16.001556 0.000000 -0.003868 17.001556 0.000000 -0.003868 18.001556 0.000000 -0.003868 19.002335 0.000000 0.998441 -0.002335 0.000000 0.998441 0.998444 0.000000 0.997075 1.998444 0.000000 0.996811 2.998444 0.000000 0.996797 3.998445 0.000000 0.995375 4.998445 0.000000 0.995445 5.998445 0.000000 0.996793 6.998445 0.000000 0.996776 7.998446 0.000000 0.996894 9.000000 0.000000 0.996742 10.000001 0.000000 0.996998 11.001554 0.000000 0.998435 12.001555 0.000000 0.998435 13.001555 0.000000 0.998435 14.001555 0.000000 0.998432 15.001555 0.000000 0.998432 16.001556 0.000000 0.998432 17.001556 0.000000 0.996803 18.001556 0.000000 0.996595 19.002335 0.000000 1.998444 -0.002335 0.000000 1.998444 0.998444 0.000000 1.998440 1.998444 0.000000 1.996815 2.998444 0.000000 1.996808 3.998445 0.000000 1.996885 4.998445 0.000000 1.996878 5.998445 0.000000 1.996823 6.998445 0.000000 1.996777 7.998446 0.000000 1.996897 9.000000 0.000000 1.996767 10.000001 0.000000 1.997028 11.001554 0.000000 1.998444 12.001555 0.000000 1.998444 13.001555 0.000000 1.998444 14.001555 0.000000 1.998444 15.001555 0.000000 1.998444 16.001556 0.000000 1.998444 17.001556 0.000000 1.996813 18.001556 0.000000 1.996609 19.002335 0.000000 2.998444 -0.002335 0.000000 2.998444 0.998444 0.000000 2.998443 1.998444 0.000000 2.996821 2.998444 0.000000 2.996832 3.998444 0.000000 2.996893 4.998445 0.000000 2.996895 5.998445 0.000000 2.996893 6.998445 0.000000 2.996779 7.998446 0.000000 2.996901 9.000000 0.000000 2.996771 10.000001 0.000000 2.997050 11.001554 0.000000 2.998444 12.001555 0.000000 2.998444 13.001555 0.000000 2.998444 14.001555 0.000000 2.998444 15.001555 0.000000 2.998444 16.001556 0.000000 2.998444 17.001556 0.000000 2.996830 18.001556 0.000000 2.996620 19.002335 0.000000 3.998444 -0.002335 0.000000 3.998444 0.997695 0.000000 3.998444 1.997800 0.000000 3.996889 2.997950 0.000000 3.996850 3.998036 0.000000 3.996894 4.998859 0.000000 3.996899 5.998946 0.000000 3.996896 6.999094 0.000000 3.996779 7.999194 0.000000 3.997043 9.000001 0.000000 3.996790 10.000005 0.000000 3.997073 11.000900 0.000000 3.998444 12.001555 0.000000 3.998444 13.001555 0.000000 3.998444 14.001555 0.000000 3.998444 15.001556 0.000000 3.998444 16.001556 0.000000 3.998444 17.001557 0.000000 3.996838 18.002213 0.000000 3.996631 19.002335 0.000000 4.998445 -0.008464 0.000000 4.998445 0.994980 0.000000 4.998443 1.995320 0.000000 4.998438 2.995699 0.000000 4.998034 3.996875 0.000000 4.996896 4.996891 0.000000 4.996931 5.996899 0.000000 4.996898 6.996906 0.000000 4.996816 7.997629 0.000000 4.997063 8.998441 0.000000 4.996792 9.999245 0.000000 4.997073 10.999990 0.000000 4.998445 12.001555 0.000000 4.998445 13.001555 0.000000 4.998445 14.001555 0.000000 4.998445 15.001555 0.000000 4.998445 16.001556 0.000000 4.998445 17.001556 0.000000 4.996858 18.001556 0.000000 4.996656 19.002335 0.000000 5.998446 -0.003879 0.000000 5.998446 0.996928 0.000000 5.998446 1.997695 0.000000 5.998446 2.998031 0.000000 5.998191 3.998444 0.000000 5.996901 4.998866 0.000000 5.996936 5.999196 0.000000 5.998436 6.999259 0.000000 5.997609 7.999972 0.000000 5.997265 9.000004 0.000000 5.996808 10.000753 0.000000 5.997133 11.000968 0.000000 5.998445 12.001555 0.000000 5.998445 13.001555 0.000000 5.998445 14.001555 0.000000 5.998445 15.001556 0.000000 5.998445 16.001556 0.000000 5.998445 17.001557 0.000000 5.996858 18.002146 0.000000 5.997526 19.002335 0.000000 6.998446 -0.002335 0.000000 6.998446 0.997670 0.000000 6.998446 1.997760 0.000000 6.998446 2.998444 0.000000 6.998447 3.998445 0.000000 6.997245 4.998445 0.000000 6.997093 5.998445 0.000000 6.998441 6.999124 0.000000 6.997614 7.999216 0.000000 6.998435 8.999999 0.000000 6.997592 10.000001 0.000000 6.997719 11.001554 0.000000 6.998445 12.001555 0.000000 6.998445 13.001555 0.000000 6.998445 14.001555 0.000000 6.998445 15.001555 0.000000 6.998445 16.001556 0.000000 6.998445 17.001556 0.000000 6.996859 18.001556 0.000000 6.997528 19.002335 0.000000 7.998446 -0.002335 0.000000 7.998446 0.998444 0.000000 7.998446 1.998444 0.000000 7.998446 2.998444 0.000000 7.998448 3.998444 0.000000 7.998435 4.998445 0.000000 7.998435 5.998445 0.000000 7.998442 6.998445 0.000000 7.997617 7.998446 0.000000 7.998441 8.999999 0.000000 7.997600 10.000001 0.000000 7.997730 11.001554 0.000000 7.998445 12.001555 0.000000 7.998445 13.001555 0.000000 7.998445 14.001555 0.000000 7.998445 15.001555 0.000000 7.998445 16.001556 0.000000 7.998445 17.001556 0.000000 7.996863 18.001556 0.000000 7.997531 19.002335 0.000000 8.998446 -0.002335 0.000000 8.998446 0.998444 0.000000 8.998446 1.998444 0.000000 8.998446 2.998444 0.000000 8.998448 3.998445 0.000000 8.998442 4.998445 0.000000 8.998442 5.998445 0.000000 8.998442 6.998445 0.000000 8.997621 7.998446 0.000000 8.998442 9.000000 0.000000 8.997605 10.000001 0.000000 8.997734 11.001554 0.000000 8.998446 12.001555 0.000000 8.998446 13.001555 0.000000 8.998446 14.001555 0.000000 8.998446 15.001555 0.000000 8.998446 16.001556 0.000000 8.998446 17.001556 0.000000 8.996893 18.001556 0.000000 8.997533 19.002335 0.000000 9.998447 -0.002335 0.000000 9.998447 0.998444 0.000000 9.998447 1.998444 0.000000 9.998447 2.998444 0.000000 9.998448 3.998445 0.000000 9.998443 4.998445 0.000000 9.998444 5.998445 0.000000 9.998445 6.998445 0.000000 9.998433 7.998446 0.000000 9.998442 9.000000 0.000000 9.997607 10.000001 0.000000 9.997736 11.001554 0.000000 9.998446 12.001555 0.000000 9.998446 13.001555 0.000000 9.998446 14.001555 0.000000 9.998446 15.001555 0.000000 9.998446 16.001556 0.000000 9.998446 17.001556 0.000000 9.997628 18.001556 0.000000 9.997537 19.002335 0.000000 10.998447 -0.002335 0.000000 10.998447 0.998444 0.000000 10.998447 1.998444 0.000000 10.998447 2.998444 0.000000 10.998448 3.998445 0.000000 10.998450 4.998445 0.000000 10.998450 5.998445 0.000000 10.998448 6.998445 0.000000 10.998448 7.998446 0.000000 10.998448 9.000000 0.000000 10.997607 10.000001 0.000000 10.997745 11.001554 0.000000 10.998446 12.001555 0.000000 10.998446 13.001555 0.000000 10.998446 14.001555 0.000000 10.998446 15.001555 0.000000 10.998446 16.001556 0.000000 10.998446 17.001556 0.000000 10.997629 18.001556 0.000000 10.997539 19.002335 0.000000 11.998447 -0.002335 0.000000 11.998447 0.998444 0.000000 11.998447 1.998444 0.000000 11.998447 2.998444 0.000000 11.998449 3.998445 0.000000 11.998450 4.998445 0.000000 11.998450 5.998445 0.000000 11.998448 6.998445 0.000000 11.998448 7.998446 0.000000 11.998448 9.000000 0.000000 11.997609 10.000001 0.000000 11.997747 11.001554 0.000000 11.998447 12.001555 0.000000 11.998447 13.001555 0.000000 11.998447 14.001555 0.000000 11.998447 15.001555 0.000000 11.998447 16.001556 0.000000 11.998447 17.001556 0.000000 11.997636 18.001556 0.000000 11.997549 19.002335 0.000000 12.998448 -0.002335 0.000000 12.998448 0.998444 0.000000 12.998448 1.998444 0.000000 12.998448 2.998444 0.000000 12.998449 3.998445 0.000000 12.998450 4.998445 0.000000 12.998450 5.998445 0.000000 12.998449 6.998445 0.000000 12.998449 7.998446 0.000000 12.998449 9.000000 0.000000 12.998431 10.000001 0.000000 12.998429 11.001554 0.000000 12.998447 12.001555 0.000000 12.998447 13.001555 0.000000 12.998447 14.001555 0.000000 12.998447 15.001555 0.000000 12.998447 16.001556 0.000000 12.998447 17.001556 0.000000 12.997638 18.001556 0.000000 12.997551 19.002335 0.000000 13.998448 -0.002335 0.000000 13.998448 0.998444 0.000000 13.998448 1.998444 0.000000 13.998448 2.998444 0.000000 13.998449 3.998445 0.000000 13.998450 4.998445 0.000000 13.998450 5.998445 0.000000 13.998449 6.998445 0.000000 13.998449 7.998446 0.000000 13.998449 9.000000 0.000000 13.998441 10.000001 0.000000 13.998439 11.001554 0.000000 13.998447 12.001555 0.000000 13.998447 13.001555 0.000000 13.998447 14.001555 0.000000 13.998447 15.001555 0.000000 13.998447 16.001556 0.000000 13.998447 17.001556 0.000000 13.997640 18.001556 0.000000 13.998430 19.002335 0.000000 14.998448 -0.002335 0.000000 14.998448 0.998444 0.000000 14.998448 1.998444 0.000000 14.998448 2.998444 0.000000 14.998450 3.998445 0.000000 14.998451 4.998445 0.000000 14.998451 5.998445 0.000000 14.998449 6.998445 0.000000 14.998449 7.998446 0.000000 14.998449 9.000000 0.000000 14.998441 10.000001 0.000000 14.998441 11.001554 0.000000 14.998448 12.001555 0.000000 14.998448 13.001555 0.000000 14.998448 14.001555 0.000000 14.998448 15.001555 0.000000 14.998448 16.001556 0.000000 14.998448 17.001556 0.000000 14.997642 18.001556 0.000000 14.998442 19.002335 0.000000 15.998448 -0.002335 0.000000 15.998448 0.998444 0.000000 15.998448 1.998444 0.000000 15.998448 2.998444 0.000000 15.998450 3.998445 0.000000 15.998451 4.998445 0.000000 15.998451 5.998445 0.000000 15.998450 6.998445 0.000000 15.998450 7.998446 0.000000 15.998450 9.000000 0.000000 15.998444 10.000001 0.000000 15.998444 11.001554 0.000000 15.998449 12.001555 0.000000 15.998449 13.001555 0.000000 15.998449 14.001555 0.000000 15.998448 15.001555 0.000000 15.998448 16.001556 0.000000 15.998448 17.001556 0.000000 15.997667 18.001556 0.000000 15.998442 19.002335 0.000000 16.998449 -0.002335 0.000000 16.998449 0.998444 0.000000 16.998449 1.998444 0.000000 16.998449 2.998444 0.000000 16.998450 3.998445 0.000000 16.998451 4.998445 0.000000 16.998451 5.998445 0.000000 16.998450 6.998445 0.000000 16.998450 7.998446
[...]
      <PointData Vectors="vector">
        <DataArray type="Float32" Name="Velocity" NumberOfComponents="3" format="ascii">
-0.015000 -0.009000 0.000000 -0.015000 -0.006000 0.000000 -0.015000 -0.006000 0.000000 -0.015000 -0.006000 0.000000 -0.021000 -0.006000 0.000000 -0.021000 -0.006000 0.000000 -0.021000 -0.006000 0.000000 -0.021000 -0.006000 0.000000 -0.015000 -0.006000 0.000000 -0.021000 0.000000 0.000000 -0.015000 0.000000 0.000000 -0.015000 0.006000 0.000000 -0.015000 0.006000 0.000000 -0.015000 0.006000 0.000000 -0.015000 0.006000 0.000000 -0.015000 0.006000 0.000000 -0.015000 0.006000 0.000000 -0.015000 0.006000 0.000000 -0.015000 0.006000 0.000000 -0.015000 0.009000 0.000000 -0.006000 -0.009000 0.000000 -0.006000 -0.006000 0.000000 -0.018000 -0.006000 0.000000 -0.018000 -0.006000 0.000000 -0.018000 -0.006000 0.000000 -0.018000 -0.006000 0.000000 -0.018000 -0.006000 0.000000 -0.018000 -0.006000 0.000000 -0.018000 -0.006000 0.000000 -0.012000 0.000000 0.000000 -0.018000 0.000000 0.000000 -0.018000 0.006000 0.000000 -0.006000 0.006000 0.000000 -0.006000 0.006000 0.000000 -0.006000 0.006000 0.000000 -0.006000 0.006000 0.000000 -0.006000 0.006000 0.000000 -0.006000 0.006000 0.000000 -0.018000 0.006000 0.000000 -0.018000 0.009000 0.000000 -0.006000 -0.009000 0.000000 -0.006000 -0.006000 0.000000 -0.006000 -0.006000 0.000000 -0.018000 -0.006000 0.000000 -0.012000 -0.006000 0.000000 -0.012000 -0.006000 0.000000 -0.012000 -0.006000 0.000000 -0.018000 -0.006000 0.000000 -0.018000 -0.006000 0.000000 -0.012000 0.000000 0.000000 -0.018000 0.000000 0.000000 -0.018000 0.006000 0.000000 -0.006000 0.006000 0.000000 -0.006000 0.006000 0.000000 -0.006000 0.006000 0.000000 -0.006000 0.006000 0.000000 -0.006000 0.006000 0.000000 -0.006000 0.006000 0.000000 -0.018000 0.006000 0.000000 -0.018000 0.009000 0.000000 -0.006000 -0.009000 0.000000 -0.006000 -0.006000 0.000000 -0.006000 -0.006000 0.000000 -0.018000 -0.006000 0.000000 -0.018000 -0.006000 0.000000 -0.012000 -0.006000 0.000000 -0.012000 -0.006000 0.000000 -0.012000 -0.006007 0.000000 -0.018000 -0.006000 0.000000 -0.012000 -0.000000 0.000000 -0.018000 -0.000000 0.000000 -0.018000 0.006000 0.000000 -0.006000 0.006000 0.000000 -0.006000 0.006000 0.000000 -0.006000 0.006000 0.000000 -0.006000 0.006000 0.000000 -0.006000 0.006000 0.000000 -0.006000 0.006000 0.000000 -0.018000 0.006000 0.000000 -0.018000 0.009000 0.000000 -0.006000 -0.009000 0.000000 -0.006000 -0.012000 0.000000 -0.005998 -0.011979 0.000000 -0.018001 -0.011929 0.000000 -0.017988 -0.011972 0.000000 -0.012013 0.000000 0.000000 -0.012007 0.000001 0.000000 -0.011993 0.000027 0.000000 -0.018000 0.000000 0.000000 -0.018000 0.000010 0.000000 -0.018000 0.000034 0.000000 -0.018000 0.000041 0.000000 -0.006000 0.006000 0.000000 -0.006000 0.006000 0.000000 -0.006000 0.006000 0.000000 -0.006000 0.006000 0.000000 -0.006000 0.006000 0.000000 -0.005998 0.006000 0.000000 -0.018002 0.012000 0.000000 -0.018000 0.009000 0.000000 -0.006000 -0.033000 0.000000 -0.006000 -0.030000 0.000000 -0.006000 -0.018020 0.000000 -0.006000 -0.006071 0.000000 -0.012000 -0.012035 0.000000 -0.012001 -0.012001 0.000000 -0.012000 -0.012001 0.000000 -0.012000 -0.012055 0.000000 -0.018000 -0.012044 0.000000 -0.018000 -0.006031 0.000000 -0.018000 -0.000078 0.000000 -0.018000 -0.000092 0.000000 -0.006000 0.006000 0.000000 -0.006000 0.006000 0.000000 -0.006000 0.006000 0.000000 -0.006000 0.006000 0.000000 -0.006000 0.006000 0.000000 -0.006000 0.006000 0.000000 -0.018000 0.006000 0.000000 -0.018000 0.009000 0.000000 -0.006000 -0.015000 0.000000 -0.006000 -0.012000 0.000000 -0.006000 -0.011981 0.000000 -0.006000 -0.011929 0.000000 -0.011988 -0.005958 0.000000 -0.012012 0.000000 0.000000 -0.012000 0.000001 0.000000 -0.005999 -0.005949 0.000000 -0.012001 0.000091 0.000000 -0.017999 0.000021 0.000000 -0.018001 0.006043 0.000000 -0.018001 0.000051 0.000000 -0.005999 0.006000 0.000000 -0.006000 0.006000 0.000000 -0.006000 0.006000 0.000000 -0.006000 0.006000 0.000000 -0.006000 0.006000 0.000000 -0.005998 0.006000 0.000000 -0.018002 0.012000 0.000000 -0.012000 0.009000 0.000000 -0.006000 -0.009000 0.000000 -0.006000 -0.012000 0.000000 -0.006000 -0.011999 0.000000 -0.006000 -0.006000 0.000000 -0.006000 -0.006000 0.000000 -0.018000 -0.006000 0.000000 -0.018000 -0.006000 0.000000 -0.006000 -0.000017 0.000000 -0.012000 -0.000048 0.000000 -0.006000 -0.000000 0.000000 -0.012000 -0.000000 0.000000 -0.012000 0.006000 0.000000 -0.006000 0.006000 0.000000 -0.006000 0.006000 0.000000 -0.006000 0.006000 0.000000 -0.006000 0.006000 0.000000 -0.006000 0.006000 0.000000 -0.006000 0.006000 0.000000 -0.018000 0.006000 0.000000 -0.012000 0.009000 0.000000 -0.006000 -0.009000 0.000000 -0.006000 -0.006000 0.000000 -0.006000 -0.006000 0.000000 -0.006000 -0.006000 0.000000 -0.006000 -0.006000 0.000000 -0.006000 -0.006000 0.000000 -0.006000 -0.006000 0.000000 -0.006000 -0.006000 0.000000 -0.012000 -0.006000 0.000000 -0.006000 0.000000 0.000000 -0.012000 0.000000 0.000000 -0.012000 0.006000 0.000000 -0.006000 0.006000 0.000000 -0.006000 0.006000 0.000000 -0.006000 0.006000 0.000000 -0.006000 0.006000 0.000000 -0.006000 0.006000 0.000000 -0.006000 0.006000 0.000000 -0.018000 0.006000 0.000000 -0.012000 0.009000 0.000000 -0.006000 -0.009000 0.000000 -0.006000 -0.006000 0.000000 -0.006000 -0.006000 0.000000 -0.006000 -0.006000 0.000000 -0.006000 -0.006000 0.000000 -0.006000 -0.006000 0.000000 -0.006000 -0.006000 0.000000 -0.006000 -0.006000 0.000000 -0.012000 -0.006000 0.000000 -0.006000 0.000000 0.000000 -0.012000 0.000000 0.000000 -0.012000 0.006000 0.000000 -0.006000 0.006000 0.000000 -0.006000 0.006000 0.000000 -0.006000 0.006000 0.000000 -0.006000 0.006000 0.000000 -0.006000 0.006000 0.000000 -0.006000 0.006000 0.000000 -0.018000 0.006000 0.000000 -0.012000 0.009000 0.000000 -0.006000 -0.009000 0.000000 -0.006000 -0.006000 0.000000 -0.006000 -0.006000 0.000000 -0.006000 -0.006000 0.000000 -0.006000 -0.006000 0.000000 -0.006000 -0.006000 0.000000 -0.006000 -0.006000 0.000000 -0.006000 -0.006000 0.000000 -0.006000 -0.006000 0.000000 -0.006000 -0.000000 0.000000 -0.012000 0.000000 0.000000 -0.012000 0.006000 0.000000 -0.006000 0.006000 0.000000 -0.006000 0.006000 0.000000 -0.006000 0.006000 0.000000 -0.006000 0.006000 0.000000 -0.006000 0.006000 0.000000 -0.006000 0.006000 0.000000 -0.012000 0.006000 0.000000 -0.012000 0.009000 0.000000 -0.006000 -0.009000 0.000000 -0.006000 -0.006000 0.000000 -0.006000 -0.006000 0.000000 -0.006000 -0.006000 0.000000 -0.006000 -0.006000 0.000000 -0.006000 -0.006000 0.000000 -0.006000 -0.006000 0.000000 -0.006000 -0.006000 0.000000 -0.006000 -0.006000 0.000000 -0.006000 0.000000 0.000000 -0.012000 0.000000 0.000000 -0.012000 0.006000 0.000000 -0.006000 0.006000 0.000000 -0.006000 0.006000 0.000000 -0.006000 0.006000 0.000000 -0.006000 0.006000 0.000000 -0.006000 0.006000 0.000000 -0.006000 0.006000 0.000000 -0.012000 0.006000 0.000000 -0.012000 0.009000 0.000000 -0.006000 -0.009000 0.000000 -0.006000 -0.006000 0.000000 -0.006000 -0.006000 0.000000 -0.006000 -0.006000 0.000000 -0.006000 -0.006000 0.000000 -0.006000 -0.006000 0.000000 -0.006000 -0.006000 0.000000 -0.006000 -0.006000 0.000000 -0.006000 -0.006000 0.000000 -0.006000 0.000000 0.000000 -0.012000 0.000000 0.000000 -0.012000 0.006000 0.000000 -0.006000 0.006000 0.000000 -0.006000 0.006000 0.000000 -0.006000 0.006000 0.000000 -0.006000 0.006000 0.000000 -0.006000 0.006000 0.000000 -0.006000 0.006000 0.000000 -0.012000 0.006000 0.000000 -0.012000 0.009000 0.000000 -0.006000 -0.009000 0.000000 -0.006000 -0.006000 0.000000 -0.006000 -0.006000 0.000000 -0.006000 -0.006000 0.000000 -0.006000 -0.006000 0.000000 -0.006000 -0.006000 0.000000 -0.006000 -0.006000 0.000000 -0.006000 -0.006000 0.000000 -0.006000 -0.006000 0.000000 -0.006000 0.000000 0.000000 -0.006000 0.000000 0.000000 -0.006000 0.006000 0.000000 -0.006000 0.006000 0.000000 -0.006000 0.006000 0.000000 -0.006000 0.006000 0.000000 -0.006000 0.006000 0.000000 -0.006000 0.006000 0.000000 -0.006000 0.006000 0.000000 -0.012000 0.006000 0.000000 -0.012000 0.009000 0.000000 -0.006000 -0.009000 0.000000 -0.006000 -0.006000 0.000000 -0.006000 -0.006000 0.000000 -0.006000 -0.006000 0.000000 -0.006000 -0.006000 0.000000 -0.006000 -0.006000 0.000000 -0.006000 -0.006000 0.000000 -0.006000 -0.006000 0.000000 -0.006000 -0.006000 0.000000 -0.006000 0.000000 0.000000 -0.006000 0.000000 0.000000 -0.006000 0.006000 0.000000 -0.006000 0.006000 0.000000 -0.006000 0.006000 0.000000 -0.006000 0.006000 0.000000 -0.006000 0.006000 0.000000 -0.006000 0.006000 0.000000 -0.006000 0.006000 0.000000 -0.012000 0.006000 0.000000 -0.006000 0.009000 0.000000 -0.006000 -0.009000 0.000000 -0.006000 -0.006000 0.000000 -0.006000 -0.006000 0.000000 -0.006000 -0.006000 0.000000 -0.006000 -0.006000 0.000000 -0.006000 -0.006000 0.000000 -0.006000 -0.006000 0.000000 -0.006000 -0.006000 0.000000 -0.006000 -0.006000 0.000000 -0.006000 0.000000 0.000000 -0.006000 0.000000 0.000000 -0.006000 0.006000 0.000000 -0.006000 0.006000 0.000000 -0.006000 0.006000 0.000000 -0.006000 0.006000 0.000000 -0.006000 0.006000 0.000000 -0.006000 0.006000 0.000000 -0.006000 0.006000 0.000000 -0.012000 0.006000 0.000000 -0.006000 0.009000 0.000000 -0.006000 -0.009000 0.000000 -0.006000 -0.006000 0.000000 -0.006000 -0.006000 0.000000 -0.006000 -0.006000 0.000000 -0.006000 -0.006000 0.000000 -0.006000 -0.006000 0.000000 -0.006000 -0.006000 0.000000 -0.006000 -0.006000 0.000000 -0.006000 -0.006000 0.000000 -0.006000 0.000000 0.000000 -0.006000 0.000000 0.000000 -0.006000 0.006000 0.000000 -0.006000 0.006000 0.000000 -0.006000 0.006000 0.000000 -0.006000 0.006000 0.000000 -0.006000 0.006000 0.000000 -0.006000 0.006000 0.000000 -0.006000 0.006000 0.000000 -0.012000 0.006000 0.000000 -0.006000 0.009000 0.000000 -0.006000 -0.009000 0.000000 -0.006000 -0.006000 0.000000 -0.006000 -0.006000 0.000000 -0.006000 -0.006000 0.000000 -0.006000 -0.006000 0.000000 -0.006000 -0.006000 0.000000 -0.006000 -0.006000 0.000000 -0.006000 -0.006000 0.000000 -0.006000 -0.006000 0.000000 -0.006000 0.000000 0.000000 -0.006000 0.000000 0.000000 -0.006000 0.006000 0.000000 -0.006000 0.006000 0.000000 -0.006000 0.006000 0.000000 -0.006000 0.006000 0.000000 -0.006000 0.006000 0.000000 -0.006000 0.006000 0.000000 -0.006000 0.006000 0.000000 -0.012000 0.006000 0.000000 -0.006000 0.009000 0.000000 -0.006000 -0.009000 0.000000 -0.006000 -0.006000 0.000000 -0.006000 -0.006000 0.000000 -0.006000 -0.006000 0.000000 -0.006000 -0.006000 0.000000 -0.006000 -0.006000 0.000000 -0.006000 -0.006000 0.000000 -0.006000 -0.006000 0.000000 -0.006000 -0.006000 0.000000 -0.006000 0.000000 0.000000 -0.006000 0.000000 0.000000 -0.006000 0.006000 0.000000 -0.006000 0.006000 0.000000 -0.006000 0.006000 0.000000 -0.006000 0.006000 0.000000 -0.006000 0.006000 0.000000 -0.006000 0.006000 0.000000 -0.006000 0.006000 0.000000 -0.006000 0.006000 0.000000 -0.006000 0.009000 0.000000 -0.006000 -0.009000 0.000000 -0.006000 -0.006000 0.000000 -0.006000 -0.006000 0.000000 -0.006000 -0.006000 0.000000 -0.006000 -0.006000 0.000000 -0.006000 -0.006000 0.000000 -0.006000 -0.006000 0.000000 -0.006000 -0.006000 0.000000 -0.006000 -0.006000 0.000000 -0.006000 0.000000 0.000000 -0.006000 0.000000 0.000000 -0.006000 0.006000 0.000000 -0.006000 0.006000 0.000000 -0.006000 0.006000 0.000000 -0.006000 0.006000 0.000000 -0.006000 0.006000 0.000000 -0.006000 0.006000 0.000000 -0.006000 0.006000 0.000000 -0.006000 0.006000 0.000000 -0.006000 0.009000 0.000000 -0.006000 -0.009000 0.000000 -0.006000 -0.006000 0.000000 -0.006000 -0.006000 0.000000 -0.006000 -0.006000 0.000000 -0.006000 -0.006000 0.000000 -0.006000 -0.006000 0.000000 -0.006000 -0.006000 0.000000 -0.006000 -0.006000 0.000000 -0.006000 -0.006000 0.000000 -0.006000 0.000000 0.000000 -0.006000 0.000000 0.000000 -0.006000 0.006000 0.000000 -0.006000 0.006000 0.000000 -0.006000 0.006000 0.000000 -0.006000 0.006000 0.000000 -0.006000 0.006000 0.000000 -0.006000 0.006000 0.000000 -0.006000 0.006000 0.000000 -0.006000 0.006000 0.000000 -0.006000 0.009000 0.000000 -0.006000 -0.009000 0.000000 -0.006000 -0.006000 0.000000 -0.006000 -0.006000 0.000000 -0.006000 -0.006000 0.000000 -0.006000 -0.006000 0.000000 -0.006000 -0.006000 0.000000 -0.006000 -0.006000 0.000000 -0.006000 -0.006000 0.000000 -0.006000 -0.006000 0.000000 -0.006000 0.000000 0.000000 -0.006000 0.000000 0.000000 -0.006000 0.006000 0.000000 -0.006000 0.006000 0.000000 -0.006000 0.006000 0.000000 -0.006000 0.006000 0.000000 -0.006000 0.006000 0.000000 -0.006000 0.006000 0.000000 -0.006000 0.006000 0.000000 -0.006000 0.006000 0.000000 -0.006000 0.009000 0.000000 -0.006000 -0.009000 0.000000 -0.006000 -0.006000 0.000000 -0.006000 -0.006000 0.000000 -0.006000 -0.006000 0.000000 -0.006000 -0.006000 0.000000 -0.006000 -0.006000 0.000000 -0.006000 -0.006000 0.000000 -0.006000 -0.006000 0.000000 -0.006000 -0.006000 0.000000 -0.006000 0.000000 0.000000 -0.006000 0.000000 0.000000 -0.006000 0.006000 0.000000 -0.006000 0.006000 0.000000 -0.006000 0.006000 0.000000 -0.006000 0.006000 0.000000 -0.006000 0.006000 0.000000 -0.006000 0.006000 0.000000 -0.006000 0.006000 0.000000 0.000000 0.006000 0.000000 -0.006000 0.009000 0.000000 -0.006000 -0.009000 0.000000 -0.006000 -0.006000 0.000000 -0.006000 -0.006000 0.000000 -0.006000 -0.006000 0.000000 -0.006000 -0.006000 0.000000 -0.006000 -0.006000 0.000000 -0.006000 -0.006000 0.000000 -0.006000 -0.006000 0.000000 -0.006000 -0.006000 0.000000 -0.006000 0.000000 0.000000 -0.006000 0.000000 0.000000 -0.006000 0.006000 0.000000 -0.006000 0.006000 0.000000 -0.006000 0.006000 0.000000 -0.006000 0.006000 0.000000 -0.006000 0.006000 0.000000 -0.006000 0.006000 0.000000 -0.006000 0.006000 0.000000 0.000000 0.006000 0.000000 -0.006000 0.009000 0.000000 -0.006000 -0.009000 0.000000 -0.006000 -0.006000 0.000000 -0.006000 -0.006000 0.000000 -0.006000 -0.006000 0.000000 -0.006000 -0.006000 0.000000 -0.006000 -0.006000 0.000000 -0.006000 -0.006000 0.000000 -0.006000 -0.006000 0.000000 -0.006000 -0.006000 0.000000 -0.006000 0.000000 0.000000 -0.006000 0.000000 0.000000 -0.006000 0.006000 0.000000 -0.006000 0.006000 0.000000 -0.006000 0.006000 0.000000 -0.006000 0.006000 0.000000 -0.006000 0.006000 0.000000 -0.006000 0.006000 0.000000 -0.006000 0.006000 0.000000 -0.000000 0.006000 0.000000 -0.006000 0.009000 0.000000 -0.006000 -0.009000 0.000000 -0.006000 -0.006000 0.000000 -0.006000 -0.006000 0.000000 -0.006000 -0.006000 0.000000 -0.006000 -0.006000 0.000000 -0.006000 -0.006000 0.000000 -0.006000 -0.006000 0.000000 -0.006000 -0.006000 0.000000 -0.006000 -0.006000 0.000000 -0.006000 0.000000 0.000000 -0.006000 0.000000 0.000000 -0.006000 0.006000 0.000000 -0.006000 0.006000 0.000000 -0.006000 0.006000 0.000000 -0.006000 0.006000 0.000000 -0.006000 0.006000 0.000000 -0.006000 0.006000 0.000000 -0.006000 0.006000 0.000000 0.000000 0.006000 0.000000 -0.006000 0.009000 0.000000 -0.006000 -0.009000 0.000000 -0.006000 -0.006000 0.000000 -0.006000 -0.006000 0.000000 -0.006000 -0.006000 0.000000 -0.006000 -0.006000 0.000000 -0.006000 -0.006000 0.000000 -0.006000 -0.006000 0.000000 -0.006000 -0.006000 0.000000 -0.006000 -0.006000 0.000000 -0.006000 0.000000 0.000000 -0.006000 0.000000 0.000000 -0.000000 0.006000 0.000000 -0.006000 0.006000 0.000000 -0.006000 0.006000 0.000000 -0.006000 0.006000 0.000000 -0.006000 0.006000 0.000000 -0.006000 0.006000 0.000000 -0.006000 0.006000 0.000000 0.000000 0.006000 0.000000 0.000000 0.009000 0.000000 -0.006000 -0.009000 0.000000 -0.006000 -0.006000 0.000000 -0.006000 -0.006000 0.000000 -0.006000 -0.006000 0.000000 0.000000 -0.006000 0.000000 -0.006000 -0.006000 0.000000 -0.006000 -0.006000 0.000000 -0.006000 -0.006000 0.000000 -0.006000 -0.006000 0.000000 -0.006000 0.000000 0.000000 -0.000000 0.000000 0.000000 0.000000 0.006000 0.000000 -0.006000 0.006000 0.000000 -0.006000 0.006000 0.000000 -0.006000 0.006000 0.000000 -0.006000 0.006000 0.000000 -0.006000 0.006000 0.000000 -0.006000 0.006000 0.000000 0.006000 0.006000 0.000000 -0.000000 0.009000 0.000000 -0.006000 -0.009000 0.000000 -0.006000 -0.006000 0.000000 -0.006000 -0.006000 0.000000 -0.006000 -0.006000 0.000000 -0.000000 -0.006000 0.000000 -0.006000 -0.006000 0.000000 -0.006000 -0.006000 0.000000 -0.006000 -0.006000 0.000000 -0.006000 -0.006000 0.000000 -0.006000 -0.000000 0.000000 -0.000000 -0.000000 0.000000 -0.000000 0.006001 0.000000 -0.006000 0.006000 0.000000 -0.006000 0.006000 0.000000 -0.006000 0.006000 0.000000 -0.006000 0.006000 0.000000 -0.006000 0.006000 0.000000 -0.006000 0.006000 0.000000 0.006000 0.006000 0.000000 -0.000000 0.009000 0.000000 -0.006000 -0.009000 0.000000 -0.006000 -0.012000 0.000000 -0.006000 -0.011939 0.000000 -0.006000 -0.011969 0.000000 -0.000001 -0.005980 0.000000 0.000002 -0.005948 0.000000 -0.006001 0.000066 0.000000 -0.006001 0.000007 0.000000 0.000001 0.000022 0.000000 -0.000001 -0.005817 0.000000 0.000002 0.006117 0.000000 0.000002 0.000501 0.000000 -0.006000 0.006000 0.000000 -0.006000 0.006000 0.000000 -0.006000 0.006000 0.000000 -0.006000 0.006000 0.000000 -0.006000 0.006000 0.000000 -0.006002 0.006000 0.000000 0.012002 0.012295 0.000000 0.000000 0.009155 0.000000 -0.011891 -1.191014 0.000000 -0.011828 -1.359027 0.000000 -0.012926 -1.221076 0.000000 -0.011053 -1.263059 0.000000 -0.012914 -1.329045 0.000000 -0.011770 -1.206112 0.000000 -0.003406 -1.248121 0.000000 -0.019380 -1.257046 0.000000 -0.014074 -1.248845 0.000000 -0.017780 -1.241840 0.000000 0.004166 -1.200887 0.000000 -0.007200 -1.550316 0.000000 -0.025574 -9.252778 0.000000 -0.006103 -1.453915 0.000000 -0.008918 -9.087115 0.000000 -0.035737 -0.930057 0.000000 0.040912 -9.229916 0.000000 -0.092057 -0.732217 0.000000 -0.244405 -8.455050 0.000000 0.493952 0.386751 0.000000 -0.011896 -1.215023 0.000000 -0.011845 -1.314040 0.000000 -0.013392 -1.308015 0.000000 -0.004688 -1.248016 0.000000 -0.005934 -1.206044 0.000000 -0.002372 -1.164095 0.000000 -0.001530 -1.293100 0.000000 -0.011422 -1.230007 0.000000 -0.012479 -1.332824 0.000000 -0.013336 -1.211926 0.000000 0.008672 -1.338648 0.000000 -0.001422 -1.768034 0.000000 -0.025715 -9.177677 0.000000 -0.008013 -2.080975 0.000000 -0.018691 -8.745784 0.000000 -0.028730 -2.232997 0.000000 0.031972 -8.332092 0.000000 -0.069023 -1.573719 0.000000 -0.256842 -8.524116 0.000000 0.582544 -1.576866 0.000000 -0.011897 -1.263022 0.000000 -0.011983 -1.284022 0.000000 -0.013363 -1.287053 0.000000 0.001435 -1.221022 0.000000 -0.013059 -1.209033 0.000000 0.000473 -1.227031 0.000000 0.008107 -1.239075 0.000000 -0.010068 -1.236160 0.000000 0.004327 -1.347785 0.000000 -0.012085 -1.172433 0.000000 0.007627 -1.242533 0.000000 -0.001902 -1.312831 0.000000 -0.024504 -9.503831 0.000000 -0.010123 -2.425433 0.000000 -0.011729 -8.405455 0.000000 -0.019072 -2.258412 0.000000 0.027783 -8.310976 0.000000 -0.065541 -1.645809 0.000000 -0.250692 -8.492558 0.000000 0.546955 -1.820946 0.000000 -0.011892 -1.296010 0.000000 -0.012301 -1.287010 0.000000 -0.006860 -1.182023 0.000000 -0.004891 -1.293059 0.000000 0.002191 -1.176061 0.000000 -0.002166 -1.289981 0.000000 -0.000283 -1.308075 0.000000 -0.007936 -1.296150 0.000000 0.004408 -1.176688 0.000000 -0.006661 -1.247803 0.000000 0.007126 -1.236136 0.000000 0.013787 -1.932101 0.000000 -0.027808 -9.083011 0.000000 -0.009863 -2.086072 0.000000 0.005438 -8.685305 0.000000 -0.023730 -2.029989 0.000000 0.039439 -8.553859 0.000000 -0.060649 -1.475678 0.000000 -0.223632 -8.809274 0.000000 0.561036 -1.571382 0.000000 -0.005998 -1.287058 0.000000 -0.006309 -1.191000 0.000000 -0.000594 -1.281059 0.000000 -0.004907 -1.208985 0.000000 -0.010685 -1.275027 0.000000 -0.002044 -1.308128 0.000000 0.001372 -1.259991 0.000000 -0.002278 -1.245136 0.000000 0.004390 -1.191925 0.000000 -0.001609 -1.232441 0.000000 0.001619 -1.345081 0.000000 0.004266 -1.676115 0.000000 -0.015536 -9.260902 0.000000 -0.003831 -2.104036 0.000000 -0.003296 -8.664401 0.000000 -0.009228 -2.181680 0.000000 0.033089 -8.409925 0.000000 -0.049128 -1.852280 0.000000 -0.2