<VTKFile type="UnstructuredGrid" version="0.1" byte_order="LittleEndian">
  <UnstructuredGrid>
    <Piece NumberOfPoints="2000" NumberOfCells="0">
      <Points>
        <DataArray name="Position" type="Float32" NumberOfComponents="3" format="ascii">
-0.004044 -0.002429 0.000000 -0.004044 0.998381 0.000000 -0.004044 1.998381 0.000000 -0.004044 2.998381 0.000000 -0.005496 3.998382 0.000000 -0.005630 4.998382 0.000000 -0.005615 5.998382 0.000000 -0.005651 6.998382 0.000000 -0.004035 7.998383 0.000000 -0.005650 9.000000 0.000000 -0.004031 10.000001 0.000000 -0.004030 11.001617 0.000000 -0.004032 12.001618 0.000000 -0.004032 13.001618 0.000000 -0.004032 14.001618 0.000000 -0.004026 15.001618 0.000000 -0.004026 16.001619 0.000000 -0.004026 17.001619 0.000000 -0.004026 18.001619 0.000000 -0.004026 19.002429 0.000000 0.998378 -0.002429 0.000000 0.998378 0.998381 0.000000 0.996886 1.998381 0.000000 0.996622 2.998381 0.000000 0.996608 3.998382 0.000000 0.995186 4.998382 0.000000 0.995256 5.998382 0.000000 0.996604 6.998382 0.000000 0.996587 7.998383 0.000000 0.996768 9.000000 0.000000 0.996553 10.000001 0.000000 0.996809 11.001617 0.000000 0.998372 12.001618 0.000000 0.998372 13.001618 0.000000 0.998372 14.001618 0.000000 0.998369 15.001618 0.000000 0.998369 16.001619 0.000000 0.998369 17.001619 0.000000 0.996614 18.001619 0.000000 0.996406 19.002429 0.000000 1.998381 -0.002429 0.000000 1.998381 0.998381 0.000000 1.998377 1.998381 0.000000 1.996626 2.998381 0.000000 1.996643 3.998382 0.000000 1.996759 4.998382 0.000000 1.996752 5.998382 0.000000 1.996634 6.998382 0.000000 1.996588 7.998383 0.000000 1.996771 9.000000 0.000000 1.996578 10.000001 0.000000 1.996839 11.001617 0.000000 1.998381 12.001618 0.000000 1.998381 13.001618 0.000000 1.998381 14.001618 0.000000 1.998381 15.001618 0.000000 1.998381 16.001619 0.000000 1.998381 17.001619 0.000000 1.996624 18.001619 0.000000 1.996420 19.002429 0.000000 2.998381 -0.002429 0.000000 2.998381 0.998381 0.000000 2.998380 1.998381 0.000000 2.996632 2.998381 0.000000 2.996661 3.998382 0.000000 2.996767 4.998382 0.000000 2.996769 5.998382 0.000000 2.996767 6.998382 0.000000 2.996590 7.998383 0.000000 2.996775 9.000000 0.000000 2.996582 10.000001 0.000000 2.996861 11.001617 0.000000 2.998381 12.001618 0.000000 2.998381 13.001618 0.000000 2.998381 14.001618 0.000000 2.998381 15.001618 0.000000 2.998381 16.001619 0.000000 2.998381 17.001619 0.000000 2.996641 18.001619 0.000000 2.996431 19.002429 0.000000 3.998381 -0.002432 0.000000 3.998381 0.997572 0.000000 3.998381 1.997675 0.000000 3.996700 2.997825 0.000000 3.996682 3.997911 0.000000 3.996768 4.998859 0.000000 3.996773 5.998946 0.000000 3.996771 6.999094 0.000000 3.996590 7.999194 0.000000 3.996854 9.000001 0.000000 3.996601 10.000006 0.000000 3.996884 11.000900 0.000000 3.998381 12.001618 0.000000 3.998381 13.001618 0.000000 3.998381 14.001618 0.000000 3.998381 15.001619 0.000000 3.998381 16.001619 0.000000 3.998381 17.001620 0.000000 3.996648 18.002339 0.000000 3.996442 19.002429 0.000000 4.998382 -0.008810 0.000000 4.998382 0.994665 0.000000 4.998380 1.995131 0.000000 4.998375 2.995635 0.000000 4.997908 3.996748 0.000000 4.996770 4.996765 0.000000 4.996805 5.996773 0.000000 4.996772 6.996780 0.000000 4.996627 7.997503 0.000000 4.996874 8.998377 0.000000 4.996603 9.999244 0.000000 4.996884 10.999989 0.000000 4.998382 12.001618 0.000000 4.998382 13.001618 0.000000 4.998382 14.001618 0.000000 4.998382 15.001618 0.000000 4.998382 16.001619 0.000000 4.998382 17.001619 0.000000 4.996669 18.001619 0.000000 4.996467 19.002429 0.000000 5.998383 -0.004037 0.000000 5.998383 0.996802 0.000000 5.998383 1.997569 0.000000 5.998383 2.997906 0.000000 5.998065 3.998381 0.000000 5.996775 4.998866 0.000000 5.996810 5.999196 0.000000 5.998373 6.999197 0.000000 5.997483 7.999973 0.000000 5.997076 9.000004 0.000000 5.996619 10.000816 0.000000 5.996944 11.000968 0.000000 5.998382 12.001618 0.000000 5.998382 13.001618 0.000000 5.998382 14.001618 0.000000 5.998382 15.001619 0.000000 5.998382 16.001619 0.000000 5.998382 17.001620 0.000000 5.996669 18.002272 0.000000 5.997400 19.002429 0.000000 6.998383 -0.002482 0.000000 6.998383 0.997597 0.000000 6.998383 1.997634 0.000000 6.998383 2.998381 0.000000 6.998384 3.998382 0.000000 6.997056 4.998382 0.000000 6.996904 5.998382 0.000000 6.998378 6.999124 0.000000 6.997488 7.999216 0.000000 6.998372 8.999999 0.000000 6.997466 10.000001 0.000000 6.997593 11.001617 0.000000 6.998382 12.001618 0.000000 6.998382 13.001618 0.000000 6.998382 14.001618 0.000000 6.998382 15.001618 0.000000 6.998382 16.001619 0.000000 6.998382 17.001619 0.000000 6.996670 18.001619 0.000000 6.997402 19.002429 0.000000 7.998383 -0.002429 0.000000 7.998383 0.998381 0.000000 7.998383 1.998381 0.000000 7.998383 2.998381 0.000000 7.998385 3.998381 0.000000 7.998372 4.998382 0.000000 7.998372 5.998382 0.000000 7.998379 6.998382 0.000000 7.997491 7.998383 0.000000 7.998378 8.999999 0.000000 7.997474 10.000001 0.000000 7.997604 11.001617 0.000000 7.998382 12.001618 0.000000 7.998382 13.001618 0.000000 7.998382 14.001618 0.000000 7.998382 15.001618 0.000000 7.998382 16.001619 0.000000 7.998382 17.001619 0.000000 7.996674 18.001619 0.000000 7.997405 19.002429 0.000000 8.998383 -0.002429 0.000000 8.998383 0.998381 0.000000 8.998383 1.998381 0.000000 8.998383 2.998381 0.000000 8.998385 3.998382 0.000000 8.998379 4.998382 0.000000 8.998379 5.998382 0.000000 8.998379 6.998382 0.000000 8.997495 7.998383 0.000000 8.998379 9.000000 0.000000 8.997479 10.000001 0.000000 8.997608 11.001617 0.000000 8.998383 12.001618 0.000000 8.998383 13.001618 0.000000 8.998383 14.001618 0.000000 8.998383 15.001618 0.000000 8.998383 16.001619 0.000000 8.998383 17.001619 0.000000 8.996704 18.001619 0.000000 8.997407 19.002429 0.000000 9.998384 -0.002429 0.000000 9.998384 0.998381 0.000000 9.998384 1.998381 0.000000 9.998384 2.998381 0.000000 9.998385 3.998382 0.000000 9.998380 4.998382 0.000000 9.998381 5.998382 0.000000 9.998382 6.998382 0.000000 9.998370 7.998383 0.000000 9.998379 9.000000 0.000000 9.997481 10.000001 0.000000 9.997610 11.001617 0.000000 9.998383 12.001618 0.000000 9.998383 13.001618 0.000000 9.998383 14.001618 0.000000 9.998383 15.001618 0.000000 9.998383 16.001619 0.000000 9.998383 17.001619 0.000000 9.997502 18.001619 0.000000 9.997411 19.002429 0.000000 10.998384 -0.002429 0.000000 10.998384 0.998381 0.000000 10.998384 1.998381 0.000000 10.998384 2.998381 0.000000 10.998385 3.998382 0.000000 10.998387 4.998382 0.000000 10.998387 5.998382 0.000000 10.998385 6.998382 0.000000 10.998385 7.998383 0.000000 10.998385 9.000000 0.000000 10.997481 10.000001 0.000000 10.997619 11.001617 0.000000 10.998383 12.001618 0.000000 10.998383 13.001618 0.000000 10.998383 14.001618 0.000000 10.998383 15.001618 0.000000 10.998383 16.001619 0.000000 10.998383 17.001619 0.000000 10.997503 18.001619 0.000000 10.997413 19.002429 0.000000 11.998384 -0.002429 0.000000 11.998384 0.998381 0.000000 11.998384 1.998381 0.000000 11.998384 2.998381 0.000000 11.998386 3.998382 0.000000 11.998387 4.998382 0.000000 11.998387 5.998382 0.000000 11.998385 6.998382 0.000000 11.998385 7.998383 0.000000 11.998385 9.000000 0.000000 11.997483 10.000001 0.000000 11.997621 11.001617 0.000000 11.998384 12.001618 0.000000 11.998384 13.001618 0.000000 11.998384 14.001618 0.000000 11.998384 15.001618 0.000000 11.998384 16.001619 0.000000 11.998384 17.001619 0.000000 11.997510 18.001619 0.000000 11.997423 19.002429 0.000000 12.998385 -0.002429 0.000000 12.998385 0.998381 0.000000 12.998385 1.998381 0.000000 12.998385 2.998381 0.000000 12.998386 3.998382 0.000000 12.998387 4.998382 0.000000 12.998387 5.998382 0.000000 12.998386 6.998382 0.000000 12.998386 7.998383 0.000000 12.998386 9.000000 0.000000 12.998368 10.000001 0.000000 12.998366 11.001617 0.000000 12.998384 12.001618 0.000000 12.998384 13.001618 0.000000 12.998384 14.001618 0.000000 12.998384 15.001618 0.000000 12.998384 16.001619 0.000000 12.998384 17.001619 0.000000 12.997512 18.001619 0.000000 12.997425 19.002429 0.000000 13.998385 -0.002429 0.000000 13.998385 0.998381 0.000000 13.998385 1.998381 0.000000 13.998385 2.998381 0.000000 13.998386 3.998382 0.000000 13.998387 4.998382 0.000000 13.998387 5.998382 0.000000 13.998386 6.998382 0.000000 13.998386 7.998383 0.000000 13.998386 9.000000 0.000000 13.998378 10.000001 0.000000 13.998376 11.001617 0.000000 13.998384 12.001618 0.000000 13.998384 13.001618 0.000000 13.998384 14.001618 0.000000 13.998384 15.001618 0.000000 13.998384 16.001619 0.000000 13.998384 17.001619 0.000000 13.997514 18.001619 0.000000 13.998367 19.002429 0.000000 14.998385 -0.002429 0.000000 14.998385 0.998381 0.000000 14.998385 1.998381 0.000000 14.998385 2.998381 0.000000 14.998387 3.998382 0.000000 14.998388 4.998382 0.000000 14.998388 5.998382 0.000000 14.998386 6.998382 0.000000 14.998386 7.998383 0.000000 14.998386 9.000000 0.000000 14.998378 10.000001 0.000000 14.998378 11.001617 0.000000 14.998385 12.001618 0.000000 14.998385 13.001618 0.000000 14.998385 14.001618 0.000000 14.998385 15.001618 0.000000 14.998385 16.001619 0.000000 14.998385 17.001619 0.000000 14.997516 18.001619 0.000000 14.998379 19.002429 0.000000 15.998385 -0.002429 0.000000 15.998385 0.998381 0.000000 15.998385 1.998381 0.000000 15.998385 2.998381 0.000000 15.998387 3.998382 0.000000 15.998388 4.998382 0.000000 15.998388 5.998382 0.000000 15.998387 6.998382 0.000000 15.998387 7.998383 0.000000 15.998387 9.000000 0.000000 15.998381 10.000001 0.000000 15.998381 11.001617 0.000000 15.998386 12.001618 0.000000 15.998386 13.001618 0.000000 15.998386 14.001618 0.000000 15.998385 15.001618 0.000000 15.998385 16.001619 0.000000 15.998385 17.001619 0.000000 15.997541 18.001619 0.000000 15.998379 19.002429 0.000000 16.998386 -0.002429 0.000000 16.998386 0.998381 0.000000 16.998386 1.998381 0.000000 16.998386 2.998381 0.000000 16.998387 3.998382 0.000000 16.998388 4.998382 0.000000 16.998388 5.998382 0.000000 16.998387 6.998382 0.000000 16.998387 7.998383
[...]
      <PointData Vectors="vector">
        <DataArray type="Float32" Name="Velocity" NumberOfComponents="3" format="ascii">
-0.015000 -0.009000 0.000000 -0.015000 -0.006000 0.000000 -0.015000 -0.006000 0.000000 -0.015000 -0.006000 0.000000 -0.021000 -0.006000 0.000000 -0.021000 -0.006000 0.000000 -0.021000 -0.006000 0.000000 -0.021000 -0.006000 0.000000 -0.015000 -0.006000 0.000000 -0.021000 0.000000 0.000000 -0.015000 0.000000 0.000000 -0.015000 0.006000 0.000000 -0.015000 0.006000 0.000000 -0.015000 0.006000 0.000000 -0.015000 0.006000 0.000000 -0.015000 0.006000 0.000000 -0.015000 0.006000 0.000000 -0.015000 0.006000 0.000000 -0.015000 0.006000 0.000000 -0.015000 0.009000 0.000000 -0.006000 -0.009000 0.000000 -0.006000 -0.006000 0.000000 -0.018000 -0.006000 0.000000 -0.018000 -0.006000 0.000000 -0.018000 -0.006000 0.000000 -0.018000 -0.006000 0.000000 -0.018000 -0.006000 0.000000 -0.018000 -0.006000 0.000000 -0.018000 -0.006000 0.000000 -0.012000 0.000000 0.000000 -0.018000 0.000000 0.000000 -0.018000 0.006000 0.000000 -0.006000 0.006000 0.000000 -0.006000 0.006000 0.000000 -0.006000 0.006000 0.000000 -0.006000 0.006000 0.000000 -0.006000 0.006000 0.000000 -0.006000 0.006000 0.000000 -0.018000 0.006000 0.000000 -0.018000 0.009000 0.000000 -0.006000 -0.009000 0.000000 -0.006000 -0.006000 0.000000 -0.006000 -0.006000 0.000000 -0.018000 -0.006000 0.000000 -0.018000 -0.006000 0.000000 -0.012000 -0.006000 0.000000 -0.012000 -0.006000 0.000000 -0.018000 -0.006000 0.000000 -0.018000 -0.006000 0.000000 -0.012000 0.000000 0.000000 -0.018000 0.000000 0.000000 -0.018000 0.006000 0.000000 -0.006000 0.006000 0.000000 -0.006000 0.006000 0.000000 -0.006000 0.006000 0.000000 -0.006000 0.006000 0.000000 -0.006000 0.006000 0.000000 -0.006000 0.006000 0.000000 -0.018000 0.006000 0.000000 -0.018000 0.009000 0.000000 -0.006000 -0.009000 0.000000 -0.006000 -0.006000 0.000000 -0.006000 -0.006000 0.000000 -0.018000 -0.006000 0.000000 -0.018000 -0.005997 0.000000 -0.012000 -0.006000 0.000000 -0.012000 -0.006000 0.000000 -0.012000 -0.006007 0.000000 -0.018000 -0.006000 0.000000 -0.012000 -0.000000 0.000000 -0.018000 -0.000000 0.000000 -0.018000 0.006000 0.000000 -0.006000 0.006000 0.000000 -0.006000 0.006000 0.000000 -0.006000 0.006000 0.000000 -0.006000 0.006000 0.000000 -0.006000 0.006000 0.000000 -0.006000 0.006000 0.000000 -0.018000 0.006000 0.000000 -0.018000 0.009000 0.000000 -0.006000 -0.015000 0.000000 -0.006000 -0.006000 0.000000 -0.005998 -0.011979 0.000000 -0.018001 -0.011929 0.000000 -0.011988 -0.011975 0.000000 -0.012013 0.000000 0.000000 -0.012007 0.000001 0.000000 -0.011993 0.000027 0.000000 -0.018000 0.000000 0.000000 -0.018000 0.000010 0.000000 -0.018000 0.000034 0.000000 -0.018000 0.000041 0.000000 -0.006000 0.006000 0.000000 -0.006000 0.006000 0.000000 -0.006000 0.006000 0.000000 -0.006000 0.006000 0.000000 -0.006000 0.006000 0.000000 -0.005998 0.006000 0.000000 -0.018002 0.012000 0.000000 -0.018000 0.009000 0.000000 -0.006000 -0.033000 0.000000 -0.006000 -0.030000 0.000000 -0.006000 -0.018020 0.000000 -0.006000 -0.006071 0.000000 -0.012000 -0.012035 0.000000 -0.012001 -0.012001 0.000000 -0.012000 -0.012001 0.000000 -0.012000 -0.012055 0.000000 -0.018000 -0.012044 0.000000 -0.018000 -0.006031 0.000000 -0.018000 -0.000078 0.000000 -0.018000 -0.000092 0.000000 -0.006000 0.006000 0.000000 -0.006000 0.006000 0.000000 -0.006000 0.006000 0.000000 -0.006000 0.006000 0.000000 -0.006000 0.006000 0.000000 -0.006000 0.006000 0.000000 -0.018000 0.006000 0.000000 -0.018000 0.009000 0.000000 -0.006000 -0.015000 0.000000 -0.006000 -0.012000 0.000000 -0.006000 -0.011981 0.000000 -0.006000 -0.011929 0.000000 -0.011988 -0.005958 0.000000 -0.012012 0.000000 0.000000 -0.012000 0.000001 0.000000 -0.005999 -0.005949 0.000000 -0.012001 0.000091 0.000000 -0.017999 0.000021 0.000000 -0.018001 0.006043 0.000000 -0.018001 0.000051 0.000000 -0.005999 0.006000 0.000000 -0.006000 0.006000 0.000000 -0.006000 0.006000 0.000000 -0.006000 0.006000 0.000000 -0.006000 0.006000 0.000000 -0.005998 0.006000 0.000000 -0.018002 0.012000 0.000000 -0.012000 0.009000 0.000000 -0.006000 -0.015000 0.000000 -0.006000 -0.006000 0.000000 -0.006000 -0.011999 0.000000 -0.006000 -0.006000 0.000000 -0.006000 -0.006000 0.000000 -0.018000 -0.006000 0.000000 -0.018000 -0.006000 0.000000 -0.006000 -0.000017 0.000000 -0.012000 -0.000048 0.000000 -0.006000 -0.000000 0.000000 -0.012000 -0.000000 0.000000 -0.012000 0.006000 0.000000 -0.006000 0.006000 0.000000 -0.006000 0.006000 0.000000 -0.006000 0.006000 0.000000 -0.006000 0.006000 0.000000 -0.006000 0.006000 0.000000 -0.006000 0.006000 0.000000 -0.018000 0.006000 0.000000 -0.012000 0.009000 0.000000 -0.006000 -0.009000 0.000000 -0.006000 -0.006000 0.000000 -0.006000 -0.006000 0.000000 -0.006000 -0.006000 0.000000 -0.006000 -0.006000 0.000000 -0.006000 -0.006000 0.000000 -0.006000 -0.006000 0.000000 -0.006000 -0.006000 0.000000 -0.012000 -0.006000 0.000000 -0.006000 0.000000 0.000000 -0.012000 0.000000 0.000000 -0.012000 0.006000 0.000000 -0.006000 0.006000 0.000000 -0.006000 0.006000 0.000000 -0.006000 0.006000 0.000000 -0.006000 0.006000 0.000000 -0.006000 0.006000 0.000000 -0.006000 0.006000 0.000000 -0.018000 0.006000 0.000000 -0.012000 0.009000 0.000000 -0.006000 -0.009000 0.000000 -0.006000 -0.006000 0.000000 -0.006000 -0.006000 0.000000 -0.006000 -0.006000 0.000000 -0.006000 -0.006000 0.000000 -0.006000 -0.006000 0.000000 -0.006000 -0.006000 0.000000 -0.006000 -0.006000 0.000000 -0.012000 -0.006000 0.000000 -0.006000 0.000000 0.000000 -0.012000 0.000000 0.000000 -0.012000 0.006000 0.000000 -0.006000 0.006000 0.000000 -0.006000 0.006000 0.000000 -0.006000 0.006000 0.000000 -0.006000 0.006000 0.000000 -0.006000 0.006000 0.000000 -0.006000 0.006000 0.000000 -0.018000 0.006000 0.000000 -0.012000 0.009000 0.000000 -0.006000 -0.009000 0.000000 -0.006000 -0.006000 0.000000 -0.006000 -0.006000 0.000000 -0.006000 -0.006000 0.000000 -0.006000 -0.006000 0.000000 -0.006000 -0.006000 0.000000 -0.006000 -0.006000 0.000000 -0.006000 -0.006000 0.000000 -0.006000 -0.006000 0.000000 -0.006000 -0.000000 0.000000 -0.012000 0.000000 0.000000 -0.012000 0.006000 0.000000 -0.006000 0.006000 0.000000 -0.006000 0.006000 0.000000 -0.006000 0.006000 0.000000 -0.006000 0.006000 0.000000 -0.006000 0.006000 0.000000 -0.006000 0.006000 0.000000 -0.012000 0.006000 0.000000 -0.012000 0.009000 0.000000 -0.006000 -0.009000 0.000000 -0.006000 -0.006000 0.000000 -0.006000 -0.006000 0.000000 -0.006000 -0.006000 0.000000 -0.006000 -0.006000 0.000000 -0.006000 -0.006000 0.000000 -0.006000 -0.006000 0.000000 -0.006000 -0.006000 0.000000 -0.006000 -0.006000 0.000000 -0.006000 0.000000 0.000000 -0.012000 0.000000 0.000000 -0.012000 0.006000 0.000000 -0.006000 0.006000 0.000000 -0.006000 0.006000 0.000000 -0.006000 0.006000 0.000000 -0.006000 0.006000 0.000000 -0.006000 0.006000 0.000000 -0.006000 0.006000 0.000000 -0.012000 0.006000 0.000000 -0.012000 0.009000 0.000000 -0.006000 -0.009000 0.000000 -0.006000 -0.006000 0.000000 -0.006000 -0.006000 0.000000 -0.006000 -0.006000 0.000000 -0.006000 -0.006000 0.000000 -0.006000 -0.006000 0.000000 -0.006000 -0.006000 0.000000 -0.006000 -0.006000 0.000000 -0.006000 -0.006000 0.000000 -0.006000 0.000000 0.000000 -0.012000 0.000000 0.000000 -0.012000 0.006000 0.000000 -0.006000 0.006000 0.000000 -0.006000 0.006000 0.000000 -0.006000 0.006000 0.000000 -0.006000 0.006000 0.000000 -0.006000 0.006000 0.000000 -0.006000 0.006000 0.000000 -0.012000 0.006000 0.000000 -0.012000 0.009000 0.000000 -0.006000 -0.009000 0.000000 -0.006000 -0.006000 0.000000 -0.006000 -0.006000 0.000000 -0.006000 -0.006000 0.000000 -0.006000 -0.006000 0.000000 -0.006000 -0.006000 0.000000 -0.006000 -0.006000 0.000000 -0.006000 -0.006000 0.000000 -0.006000 -0.006000 0.000000 -0.006000 0.000000 0.000000 -0.006000 0.000000 0.000000 -0.006000 0.006000 0.000000 -0.006000 0.006000 0.000000 -0.006000 0.006000 0.000000 -0.006000 0.006000 0.000000 -0.006000 0.006000 0.000000 -0.006000 0.006000 0.000000 -0.006000 0.006000 0.000000 -0.012000 0.006000 0.000000 -0.012000 0.009000 0.000000 -0.006000 -0.009000 0.000000 -0.006000 -0.006000 0.000000 -0.006000 -0.006000 0.000000 -0.006000 -0.006000 0.000000 -0.006000 -0.006000 0.000000 -0.006000 -0.006000 0.000000 -0.006000 -0.006000 0.000000 -0.006000 -0.006000 0.000000 -0.006000 -0.006000 0.000000 -0.006000 0.000000 0.000000 -0.006000 0.000000 0.000000 -0.006000 0.006000 0.000000 -0.006000 0.006000 0.000000 -0.006000 0.006000 0.000000 -0.006000 0.006000 0.000000 -0.006000 0.006000 0.000000 -0.006000 0.006000 0.000000 -0.006000 0.006000 0.000000 -0.012000 0.006000 0.000000 -0.006000 0.009000 0.000000 -0.006000 -0.009000 0.000000 -0.006000 -0.006000 0.000000 -0.006000 -0.006000 0.000000 -0.006000 -0.006000 0.000000 -0.006000 -0.006000 0.000000 -0.006000 -0.006000 0.000000 -0.006000 -0.006000 0.000000 -0.006000 -0.006000 0.000000 -0.006000 -0.006000 0.000000 -0.006000 0.000000 0.000000 -0.006000 0.000000 0.000000 -0.006000 0.006000 0.000000 -0.006000 0.006000 0.000000 -0.006000 0.006000 0.000000 -0.006000 0.006000 0.000000 -0.006000 0.006000 0.000000 -0.006000 0.006000 0.000000 -0.006000 0.006000 0.000000 -0.012000 0.006000 0.000000 -0.006000 0.009000 0.000000 -0.006000 -0.009000 0.000000 -0.006000 -0.006000 0.000000 -0.006000 -0.006000 0.000000 -0.006000 -0.006000 0.000000 -0.006000 -0.006000 0.000000 -0.006000 -0.006000 0.000000 -0.006000 -0.006000 0.000000 -0.006000 -0.006000 0.000000 -0.006000 -0.006000 0.000000 -0.006000 0.000000 0.000000 -0.006000 0.000000 0.000000 -0.006000 0.006000 0.000000 -0.006000 0.006000 0.000000 -0.006000 0.006000 0.000000 -0.006000 0.006000 0.000000 -0.006000 0.006000 0.000000 -0.006000 0.006000 0.000000 -0.006000 0.006000 0.000000 -0.012000 0.006000 0.000000 -0.006000 0.009000 0.000000 -0.006000 -0.009000 0.000000 -0.006000 -0.006000 0.000000 -0.006000 -0.006000 0.000000 -0.006000 -0.006000 0.000000 -0.006000 -0.006000 0.000000 -0.006000 -0.006000 0.000000 -0.006000 -0.006000 0.000000 -0.006000 -0.006000 0.000000 -0.006000 -0.006000 0.000000 -0.006000 0.000000 0.000000 -0.006000 0.000000 0.000000 -0.006000 0.006000 0.000000 -0.006000 0.006000 0.000000 -0.006000 0.006000 0.000000 -0.006000 0.006000 0.000000 -0.006000 0.006000 0.000000 -0.006000 0.006000 0.000000 -0.006000 0.006000 0.000000 -0.012000 0.006000 0.000000 -0.006000 0.009000 0.000000 -0.006000 -0.009000 0.000000 -0.006000 -0.006000 0.000000 -0.006000 -0.006000 0.000000 -0.006000 -0.006000 0.000000 -0.006000 -0.006000 0.000000 -0.006000 -0.006000 0.000000 -0.006000 -0.006000 0.000000 -0.006000 -0.006000 0.000000 -0.006000 -0.006000 0.000000 -0.006000 0.000000 0.000000 -0.006000 0.000000 0.000000 -0.006000 0.006000 0.000000 -0.006000 0.006000 0.000000 -0.006000 0.006000 0.000000 -0.006000 0.006000 0.000000 -0.006000 0.006000 0.000000 -0.006000 0.006000 0.000000 -0.006000 0.006000 0.000000 -0.006000 0.006000 0.000000 -0.006000 0.009000 0.000000 -0.006000 -0.009000 0.000000 -0.006000 -0.006000 0.000000 -0.006000 -0.006000 0.000000 -0.006000 -0.006000 0.000000 -0.006000 -0.006000 0.000000 -0.006000 -0.006000 0.000000 -0.006000 -0.006000 0.000000 -0.006000 -0.006000 0.000000 -0.006000 -0.006000 0.000000 -0.006000 0.000000 0.000000 -0.006000 0.000000 0.000000 -0.006000 0.006000 0.000000 -0.006000 0.006000 0.000000 -0.006000 0.006000 0.000000 -0.006000 0.006000 0.000000 -0.006000 0.006000 0.000000 -0.006000 0.006000 0.000000 -0.006000 0.006000 0.000000 -0.006000 0.006000 0.000000 -0.006000 0.009000 0.000000 -0.006000 -0.009000 0.000000 -0.006000 -0.006000 0.000000 -0.006000 -0.006000 0.000000 -0.006000 -0.006000 0.000000 -0.006000 -0.006000 0.000000 -0.006000 -0.006000 0.000000 -0.006000 -0.006000 0.000000 -0.006000 -0.006000 0.000000 -0.006000 -0.006000 0.000000 -0.006000 0.000000 0.000000 -0.006000 0.000000 0.000000 -0.006000 0.006000 0.000000 -0.006000 0.006000 0.000000 -0.006000 0.006000 0.000000 -0.006000 0.006000 0.000000 -0.006000 0.006000 0.000000 -0.006000 0.006000 0.000000 -0.006000 0.006000 0.000000 -0.006000 0.006000 0.000000 -0.006000 0.009000 0.000000 -0.006000 -0.009000 0.000000 -0.006000 -0.006000 0.000000 -0.006000 -0.006000 0.000000 -0.006000 -0.006000 0.000000 -0.006000 -0.006000 0.000000 -0.006000 -0.006000 0.000000 -0.006000 -0.006000 0.000000 -0.006000 -0.006000 0.000000 -0.006000 -0.006000 0.000000 -0.006000 0.000000 0.000000 -0.006000 0.000000 0.000000 -0.006000 0.006000 0.000000 -0.006000 0.006000 0.000000 -0.006000 0.006000 0.000000 -0.006000 0.006000 0.000000 -0.006000 0.006000 0.000000 -0.006000 0.006000 0.000000 -0.006000 0.006000 0.000000 -0.006000 0.006000 0.000000 -0.006000 0.009000 0.000000 -0.006000 -0.009000 0.000000 -0.006000 -0.006000 0.000000 -0.006000 -0.006000 0.000000 -0.006000 -0.006000 0.000000 -0.006000 -0.006000 0.000000 -0.006000 -0.006000 0.000000 -0.006000 -0.006000 0.000000 -0.006000 -0.006000 0.000000 -0.006000 -0.006000 0.000000 -0.006000 0.000000 0.000000 -0.006000 0.000000 0.000000 -0.006000 0.006000 0.000000 -0.006000 0.006000 0.000000 -0.006000 0.006000 0.000000 -0.006000 0.006000 0.000000 -0.006000 0.006000 0.000000 -0.006000 0.006000 0.000000 -0.006000 0.006000 0.000000 0.000000 0.006000 0.000000 -0.006000 0.009000 0.000000 -0.006000 -0.009000 0.000000 -0.006000 -0.006000 0.000000 -0.006000 -0.006000 0.000000 -0.006000 -0.006000 0.000000 -0.006000 -0.006000 0.000000 -0.006000 -0.006000 0.000000 -0.006000 -0.006000 0.000000 -0.006000 -0.006000 0.000000 -0.006000 -0.006000 0.000000 -0.006000 0.000000 0.000000 -0.006000 0.000000 0.000000 -0.006000 0.006000 0.000000 -0.006000 0.006000 0.000000 -0.006000 0.006000 0.000000 -0.006000 0.006000 0.000000 -0.006000 0.006000 0.000000 -0.006000 0.006000 0.000000 -0.006000 0.006000 0.000000 0.000000 0.006000 0.000000 -0.006000 0.009000 0.000000 -0.006000 -0.009000 0.000000 -0.006000 -0.006000 0.000000 -0.006000 -0.006000 0.000000 -0.006000 -0.006000 0.000000 -0.006000 -0.006000 0.000000 -0.006000 -0.006000 0.000000 -0.006000 -0.006000 0.000000 -0.006000 -0.006000 0.000000 -0.006000 -0.006000 0.000000 -0.006000 0.000000 0.000000 -0.006000 0.000000 0.000000 -0.006000 0.006000 0.000000 -0.006000 0.006000 0.000000 -0.006000 0.006000 0.000000 -0.006000 0.006000 0.000000 -0.006000 0.006000 0.000000 -0.006000 0.006000 0.000000 -0.006000 0.006000 0.000000 -0.000000 0.006000 0.000000 -0.006000 0.009000 0.000000 -0.006000 -0.009000 0.000000 -0.006000 -0.006000 0.000000 -0.006000 -0.006000 0.000000 -0.006000 -0.006000 0.000000 -0.006000 -0.006000 0.000000 -0.006000 -0.006000 0.000000 -0.006000 -0.006000 0.000000 -0.006000 -0.006000 0.000000 -0.006000 -0.006000 0.000000 -0.006000 0.000000 0.000000 -0.006000 0.000000 0.000000 -0.006000 0.006000 0.000000 -0.006000 0.006000 0.000000 -0.006000 0.006000 0.000000 -0.006000 0.006000 0.000000 -0.006000 0.006000 0.000000 -0.006000 0.006000 0.000000 -0.006000 0.006000 0.000000 0.000000 0.006000 0.000000 -0.006000 0.009000 0.000000 -0.006000 -0.009000 0.000000 -0.006000 -0.006000 0.000000 -0.006000 -0.006000 0.000000 -0.006000 -0.006000 0.000000 -0.006000 -0.006000 0.000000 -0.006000 -0.006000 0.000000 -0.006000 -0.006000 0.000000 -0.006000 -0.006000 0.000000 -0.006000 -0.006000 0.000000 -0.006000 0.000000 0.000000 -0.006000 0.000000 0.000000 -0.000000 0.006000 0.000000 -0.006000 0.006000 0.000000 -0.006000 0.006000 0.000000 -0.006000 0.006000 0.000000 -0.006000 0.006000 0.000000 -0.006000 0.006000 0.000000 -0.006000 0.006000 0.000000 0.000000 0.006000 0.000000 0.000000 0.009000 0.000000 -0.006000 -0.009000 0.000000 -0.006000 -0.006000 0.000000 -0.006000 -0.006000 0.000000 -0.006000 -0.006000 0.000000 0.000000 -0.006000 0.000000 -0.006000 -0.006000 0.000000 -0.006000 -0.006000 0.000000 -0.006000 -0.006000 0.000000 -0.006000 -0.006000 0.000000 -0.006000 0.000000 0.000000 -0.000000 0.000000 0.000000 0.000000 0.006000 0.000000 -0.006000 0.006000 0.000000 -0.006000 0.006000 0.000000 -0.006000 0.006000 0.000000 -0.006000 0.006000 0.000000 -0.006000 0.006000 0.000000 -0.006000 0.006000 0.000000 0.006000 0.006000 0.000000 -0.000000 0.009000 0.000000 -0.006000 -0.009000 0.000000 -0.006000 -0.006000 0.000000 -0.006000 -0.006000 0.000000 -0.006000 -0.006000 0.000000 -0.000000 -0.006000 0.000000 -0.006000 -0.006000 0.000000 -0.006000 -0.006000 0.000000 -0.006000 -0.006000 0.000000 -0.006000 -0.006000 0.000000 -0.006000 -0.000000 0.000000 -0.000000 -0.000000 0.000000 -0.000000 0.006001 0.000000 -0.006000 0.006000 0.000000 -0.006000 0.006000 0.000000 -0.006000 0.006000 0.000000 -0.006000 0.006000 0.000000 -0.006000 0.006000 0.000000 -0.006000 0.006000 0.000000 0.006000 0.006000 0.000000 -0.000000 0.009000 0.000000 -0.006000 -0.009000 0.000000 -0.006000 -0.012000 0.000000 -0.006000 -0.011939 0.000000 -0.006000 -0.011969 0.000000 -0.000001 -0.005980 0.000000 0.000002 -0.005948 0.000000 -0.006001 0.000066 0.000000 -0.006001 0.000007 0.000000 0.000001 0.000022 0.000000 -0.000001 -0.005817 0.000000 0.000002 0.006117 0.000000 0.000002 0.000501 0.000000 -0.006000 0.006000 0.000000 -0.006000 0.006000 0.000000 -0.006000 0.006000 0.000000 -0.006000 0.006000 0.000000 -0.006000 0.006000 0.000000 -0.006002 0.006000 0.000000 0.012002 0.012295 0.000000 0.000000 0.009155 0.000000 -0.011851 -1.365021 0.000000 -0.011828 -1.386024 0.000000 -0.013073 -1.332076 0.000000 -0.010878 -1.371062 0.000000 -0.013128 -1.359043 0.000000 -0.011787 -1.398114 0.000000 -0.002513 -1.386133 0.000000 -0.021075 -1.374047 0.000000 -0.012295 -1.377871 0.000000 -0.020264 -1.343848 0.000000 0.006564 -1.352160 0.000000 0.006452 -8.932557 0.000000 -0.040863 -1.892424 0.000000 -0.009333 -8.810796 0.000000 -0.021555 -1.724975 0.000000 -0.059257 -8.174603 0.000000 0.033863 -1.976481 0.000000 -0.080735 -5.754053 0.000000 -0.320364 -3.138278 0.000000 0.559207 0.386604 0.000000 -0.011873 -1.317025 0.000000 -0.011848 -1.308040 0.000000 -0.013582 -1.398016 0.000000 -0.004460 -1.395023 0.000000 -0.005979 -1.449062 0.000000 -0.002936 -1.377078 0.000000 -0.000212 -1.374142 0.000000 -0.012680 -1.404048 0.000000 -0.011607 -1.338842 0.000000 -0.015326 -1.422380 0.000000 0.005363 -1.358488 0.000000 0.012091 -9.155272 0.000000 -0.053143 -1.816376 0.000000 -0.005510 -9.446298 0.000000 -0.007791 -1.377884 0.000000 -0.046860 -9.614123 0.000000 0.048155 -0.945414 0.000000 -0.033129 -8.959558 0.000000 -0.301814 -1.144135 0.000000 0.858702 -8.947584 0.000000 -0.011876 -1.353022 0.000000 -0.011990 -1.308022 0.000000 -0.013550 -1.353054 0.000000 -0.010318 -1.377019 0.000000 -0.013380 -1.365038 0.000000 0.000570 -1.428054 0.000000 0.008937 -1.374070 0.000000 -0.011344 -1.311197 0.000000 0.005390 -1.341955 0.000000 -0.013708 -1.421485 0.000000 0.015690 -1.371884 0.000000 0.012314 -8.402932 0.000000 -0.040437 -2.451720 0.000000 -0.012464 -9.665419 0.000000 -0.008051 -1.154642 0.000000 -0.037999 -9.637872 0.000000 0.086783 -0.926600 0.000000 -0.042314 -9.024122 0.000000 -0.324540 -1.119753 0.000000 0.923459 -9.181882 0.000000 -0.011859 -1.413011 0.000000 -0.012390 -1.338010 0.000000 -0.006962 -1.344033 0.000000 0.007250 -1.344064 0.000000 -0.010132 -1.371082 0.000000 -0.001863 -1.376971 0.000000 0.000447 -1.407073 0.000000 -0.009130 -1.347161 0.000000 0.005383 -1.377742 0.000000 -0.008264 -1.415765 0.000000 0.008441 -1.336337 0.000000 0.023278 -9.321839 0.000000 -0.038297 -1.715093 0.000000 -0.007810 -9.457877 0.000000 0.010937 -1.313805 0.000000 -0.034014 -9.404294 0.000000 0.059927 -1.175273 0.000000 -0.049660 -8.857964 0.000000 -0.283573 -1.425268 0.000000 0.921878 -8.950734 0.000000 -0.005998 -1.317058 0.000000 -0.006392 -1.344004 0.000000 -0.000587 -1.383058 0.000000 -0.004756 -1.322988 0.000000 0.000891 -1.311029 0.000000 -0.001821 -1.374128 0.000000 0.002051 -1.406991 0.000000 -0.003105 -1.407184 0.000000 -0.000741 -1.423184 0.000000 -0.003228 -1.355324 0.000000 0.002906 -1.461280 0.000000 0.030763 -9.063056 0.000000 -0.030785 -1.898715 0.000000 -0.004270 -9.474741 0.000000 -0.007866 -1.292920 0.000000 -0.023332 -9.559014 0.000000 0.051651 -1.027535 0.000000 -0.044291 -9.238176 0.000000 -0.2543