<VTKFile type="UnstructuredGrid" version="0.1" byte_order="LittleEndian">
  <UnstructuredGrid>
    <Piece NumberOfPoints="2000" NumberOfCells="0">
      <Points>
        <DataArray name="Position" type="Float32" NumberOfComponents="3" format="ascii">
-0.004651 -0.002794 0.000000 -0.004651 0.998138 0.000000 -0.004651 1.998138 0.000000 -0.004651 2.998138 0.000000 -0.006346 3.998139 0.000000 -0.006480 4.998139 0.000000 -0.006466 5.998139 0.000000 -0.006501 6.998139 0.000000 -0.004642 7.998140 0.000000 -0.006500 9.000000 0.000000 -0.004638 10.000001 0.000000 -0.004637 11.001860 0.000000 -0.004639 12.001861 0.000000 -0.004639 13.001861 0.000000 -0.004639 14.001861 0.000000 -0.004633 15.001861 0.000000 -0.004633 16.001862 0.000000 -0.004633 17.001862 0.000000 -0.004633 18.001862 0.000000 -0.004633 19.002794 0.000000 0.998135 -0.002794 0.000000 0.998135 0.998138 0.000000 0.996157 1.998138 0.000000 0.995893 2.998138 0.000000 0.995879 3.998139 0.000000 0.994457 4.998139 0.000000 0.994527 5.998139 0.000000 0.995875 6.998139 0.000000 0.995858 7.998140 0.000000 0.996126 9.000000 0.000000 0.995824 10.000001 0.000000 0.996080 11.001860 0.000000 0.998129 12.001861 0.000000 0.998129 13.001861 0.000000 0.998129 14.001861 0.000000 0.998126 15.001861 0.000000 0.998126 16.001862 0.000000 0.997849 17.001862 0.000000 0.995885 18.001862 0.000000 0.995677 19.002794 0.000000 1.998138 -0.002794 0.000000 1.998138 0.998138 0.000000 1.998134 1.998138 0.000000 1.995897 2.998138 0.000000 1.995914 3.998139 0.000000 1.996273 4.998139 0.000000 1.996182 5.998139 0.000000 1.995905 6.998139 0.000000 1.995859 7.998140 0.000000 1.996147 9.000000 0.000000 1.995849 10.000001 0.000000 1.996110 11.001860 0.000000 1.998137 12.001861 0.000000 1.998138 13.001861 0.000000 1.998138 14.001861 0.000000 1.998138 15.001861 0.000000 1.998138 16.001862 0.000000 1.997889 17.001862 0.000000 1.995895 18.001862 0.000000 1.995691 19.002794 0.000000 2.998138 -0.002794 0.000000 2.998138 0.998015 0.000000 2.998138 1.998137 0.000000 2.995902 2.998136 0.000000 2.995932 3.998138 0.000000 2.996281 4.998139 0.000000 2.996266 5.998139 0.000000 2.996281 6.998140 0.000000 2.995861 7.998266 0.000000 2.996281 9.000000 0.000000 2.995853 10.000001 0.000000 2.996132 11.001860 0.000000 2.998137 12.001861 0.000000 2.998138 13.001861 0.000000 2.998138 14.001861 0.000000 2.998138 15.001861 0.000000 2.998138 16.001862 0.000000 2.997915 17.001862 0.000000 2.995912 18.001862 0.000000 2.995702 19.002794 0.000000 3.998138 -0.003040 0.000000 3.998138 0.997189 0.000000 3.998138 1.997329 0.000000 3.995971 2.997342 0.000000 3.996196 3.997426 0.000000 3.996281 4.998859 0.000000 3.996283 5.998947 0.000000 3.996285 6.999095 0.000000 3.995861 7.999194 0.000000 3.996285 9.000002 0.000000 3.995872 10.000007 0.000000 3.996155 11.000902 0.000000 3.998137 12.001861 0.000000 3.998138 13.001861 0.000000 3.998138 14.001861 0.000000 3.998138 15.001862 0.000000 3.998138 16.001862 0.000000 3.997981 17.001863 0.000000 3.995919 18.002762 0.000000 3.995713 19.002857 0.000000 4.998139 -0.010147 0.000000 4.998139 0.993450 0.000000 4.998137 1.994401 0.000000 4.998132 2.995390 0.000000 4.997422 3.996261 0.000000 4.996284 4.996279 0.000000 4.996284 5.996287 0.000000 4.996286 6.996291 0.000000 4.995898 7.997015 0.000000 4.996287 8.998133 0.000000 4.995874 9.999241 0.000000 4.996155 10.999985 0.000000 4.998137 12.001861 0.000000 4.998139 13.001861 0.000000 4.998139 14.001861 0.000000 4.998139 15.001861 0.000000 4.998139 16.001862 0.000000 4.997989 17.001862 0.000000 4.995940 18.001862 0.000000 4.995738 19.002794 0.000000 5.998140 -0.004644 0.000000 5.998140 0.996316 0.000000 5.998140 1.997084 0.000000 5.998140 2.997422 0.000000 5.997580 3.998140 0.000000 5.996288 4.998866 0.000000 5.996315 5.998956 0.000000 5.998130 6.999196 0.000000 5.996996 7.999977 0.000000 5.996347 9.000005 0.000000 5.995890 10.000970 0.000000 5.996215 11.001061 0.000000 5.998139 12.001861 0.000000 5.998139 13.001861 0.000000 5.998139 14.001861 0.000000 5.998139 15.001862 0.000000 5.998139 16.001862 0.000000 5.997992 17.001863 0.000000 5.995940 18.002758 0.000000 5.995738 19.002794 0.000000 6.998140 -0.003089 0.000000 6.998140 0.997148 0.000000 6.998140 1.997354 0.000000 6.998140 2.998004 0.000000 6.998141 3.998138 0.000000 6.996327 4.998137 0.000000 6.996324 5.998275 0.000000 6.998135 6.999124 0.000000 6.997002 7.999214 0.000000 6.998129 8.999999 0.000000 6.996980 10.000001 0.000000 6.997107 11.001860 0.000000 6.998139 12.001861 0.000000 6.998139 13.001861 0.000000 6.998139 14.001861 0.000000 6.998139 15.001861 0.000000 6.998139 16.001862 0.000000 6.998006 17.001862 0.000000 6.995941 18.001862 0.000000 6.995733 19.002794 0.000000 7.998140 -0.002794 0.000000 7.998140 0.998138 0.000000 7.998140 1.998138 0.000000 7.998140 2.998138 0.000000 7.998142 3.998138 0.000000 7.998129 4.998139 0.000000 7.998129 5.998139 0.000000 7.998136 6.998139 0.000000 7.997005 7.998140 0.000000 7.998135 8.999999 0.000000 7.996988 10.000001 0.000000 7.997118 11.001860 0.000000 7.998139 12.001861 0.000000 7.998139 13.001861 0.000000 7.998139 14.001861 0.000000 7.998139 15.001861 0.000000 7.998139 16.001862 0.000000 7.998013 17.001862 0.000000 7.995945 18.001862 0.000000 7.995736 19.002794 0.000000 8.998140 -0.002794 0.000000 8.998140 0.998138 0.000000 8.998140 1.998138 0.000000 8.998140 2.998138 0.000000 8.998142 3.998139 0.000000 8.998136 4.998139 0.000000 8.998136 5.998139 0.000000 8.998136 6.998139 0.000000 8.997009 7.998140 0.000000 8.998136 9.000000 0.000000 8.996993 10.000001 0.000000 8.997122 11.001860 0.000000 8.998139 12.001861 0.000000 8.998140 13.001861 0.000000 8.998140 14.001861 0.000000 8.998140 15.001861 0.000000 8.998140 16.001862 0.000000 8.998014 17.001862 0.000000 8.995975 18.001862 0.000000 8.995748 19.002794 0.000000 9.998141 -0.002794 0.000000 9.998141 0.998138 0.000000 9.998141 1.998138 0.000000 9.998141 2.998138 0.000000 9.998142 3.998139 0.000000 9.998137 4.998139 0.000000 9.998138 5.998139 0.000000 9.998139 6.998139 0.000000 9.998127 7.998140 0.000000 9.998136 9.000000 0.000000 9.996995 10.000001 0.000000 9.997124 11.001860 0.000000 9.998139 12.001861 0.000000 9.998140 13.001861 0.000000 9.998140 14.001861 0.000000 9.998140 15.001861 0.000000 9.998140 16.001862 0.000000 9.998026 17.001862 0.000000 9.997016 18.001862 0.000000 9.995749 19.002794 0.000000 10.998141 -0.002794 0.000000 10.998141 0.998138 0.000000 10.998141 1.998138 0.000000 10.998141 2.998138 0.000000 10.998142 3.998139 0.000000 10.998144 4.998139 0.000000 10.998144 5.998139 0.000000 10.998142 6.998139 0.000000 10.998142 7.998140 0.000000 10.998142 9.000000 0.000000 10.996995 10.000001 0.000000 10.997133 11.001860 0.000000 10.998140 12.001861 0.000000 10.998140 13.001861 0.000000 10.998140 14.001861 0.000000 10.998140 15.001861 0.000000 10.998140 16.001862 0.000000 10.998028 17.001862 0.000000 10.997017 18.001862 0.000000 10.995760 19.002794 0.000000 11.998141 -0.002794 0.000000 11.998141 0.998138 0.000000 11.998141 1.998138 0.000000 11.998141 2.998138 0.000000 11.998143 3.998139 0.000000 11.998144 4.998139 0.000000 11.998144 5.998139 0.000000 11.998142 6.998139 0.000000 11.998142 7.998140 0.000000 11.998142 9.000000 0.000000 11.996997 10.000001 0.000000 11.997135 11.001860 0.000000 11.998140 12.001861 0.000000 11.998141 13.001861 0.000000 11.998141 14.001861 0.000000 11.998141 15.001861 0.000000 11.998141 16.001862 0.000000 11.998123 17.001862 0.000000 11.997024 18.001862 0.000000 11.995778 19.002794 0.000000 12.998142 -0.002794 0.000000 12.998142 0.998138 0.000000 12.998142 1.998138 0.000000 12.998142 2.998138 0.000000 12.998143 3.998139 0.000000 12.998144 4.998139 0.000000 12.998144 5.998139 0.000000 12.998143 6.998139 0.000000 12.998143 7.998140 0.000000 12.998143 9.000000 0.000000 12.998125 10.000001 0.000000 12.998123 11.001860 0.000000 12.998140 12.001861 0.000000 12.998141 13.001861 0.000000 12.998141 14.001861 0.000000 12.998141 15.001861 0.000000 12.998141 16.001862 0.000000 12.998137 17.001862 0.000000 12.997026 18.001862 0.000000 12.995775 19.002794 0.000000 13.998142 -0.002794 0.000000 13.998142 0.998138 0.000000 13.998142 1.998138 0.000000 13.998142 2.998138 0.000000 13.998143 3.998139 0.000000 13.998144 4.998139 0.000000 13.998144 5.998139 0.000000 13.998143 6.998139 0.000000 13.998143 7.998140 0.000000 13.998143 9.000000 0.000000 13.998135 10.000001 0.000000 13.998133 11.001860 0.000000 13.998140 12.001861 0.000000 13.998141 13.001861 0.000000 13.998141 14.001861 0.000000 13.998141 15.001861 0.000000 13.998141 16.001862 0.000000 13.998137 17.001862 0.000000 13.997028 18.001862 0.000000 13.995742 19.002794 0.000000 14.998142 -0.002794 0.000000 14.998142 0.998138 0.000000 14.998142 1.998138 0.000000 14.998142 2.998138 0.000000 14.998144 3.998139 0.000000 14.998145 4.998139 0.000000 14.998145 5.998139 0.000000 14.998143 6.998139 0.000000 14.998143 7.998140 0.000000 14.998143 9.000000 0.000000 14.998135 10.000001 0.000000 14.998135 11.001860 0.000000 14.998141 12.001861 0.000000 14.998142 13.001861 0.000000 14.998142 14.001861 0.000000 14.998142 15.001861 0.000000 14.998142 16.001862 0.000000 14.998139 17.001862 0.000000 14.997030 18.001862 0.000000 14.995745 19.002794 0.000000 15.998142 -0.002794 0.000000 15.998142 0.998138 0.000000 15.998142 1.998138 0.000000 15.998142 2.998138 0.000000 15.998144 3.998139 0.000000 15.998145 4.998139 0.000000 15.998145 5.998139 0.000000 15.998144 6.998139 0.000000 15.998144 7.998140 0.000000 15.998144 9.000000 0.000000 15.998138 10.000001 0.000000 15.998138 11.001860 0.000000 15.998143 12.001861 0.000000 15.998143 13.001861 0.000000 15.998143 14.001861 0.000000 15.998142 15.001861 0.000000 15.998142 16.001862 0.000000 15.998139 17.001862 0.000000 15.997055 18.001862 0.000000 15.995549 19.002794 0.000000 16.998143 -0.002794 0.000000 16.998143 0.998138 0.000000 16.998143 1.998138 0.000000 16.998143 2.998138 0.000000 16.998144 3.998139 0.000000 16.998145 4.998139 0.000000 16.998145 5.998139 0.000000 16.998144 6.998139 0.000000 16.998144 7.998140
[...]
      <PointData Vectors="vector">
        <DataArray type="Float32" Name="Velocity" NumberOfComponents="3" format="ascii">
-0.015000 -0.009000 0.000000 -0.015000 -0.006000 0.000000 -0.015000 -0.006000 0.000000 -0.015000 -0.006000 0.000000 -0.021000 -0.006000 0.000000 -0.021000 -0.006000 0.000000 -0.021000 -0.006000 0.000000 -0.021000 -0.006000 0.000000 -0.015000 -0.006000 0.000000 -0.021000 0.000000 0.000000 -0.015000 0.000000 0.000000 -0.015000 0.006000 0.000000 -0.015000 0.006000 0.000000 -0.015000 0.006000 0.000000 -0.015000 0.006000 0.000000 -0.015000 0.006000 0.000000 -0.015000 0.006000 0.000000 -0.015000 0.006000 0.000000 -0.015000 0.006000 0.000000 -0.015000 0.009000 0.000000 -0.006000 -0.009000 0.000000 -0.006000 -0.006000 0.000000 -0.018000 -0.006000 0.000000 -0.018000 -0.006000 0.000000 -0.018000 -0.006000 0.000000 -0.018000 -0.006000 0.000000 -0.018000 -0.006000 0.000000 -0.018000 -0.006000 0.000000 -0.018000 -0.006000 0.000000 -0.018000 0.000000 0.000000 -0.018000 0.000000 0.000000 -0.018000 0.006000 0.000000 -0.006000 0.006000 0.000000 -0.006000 0.006000 0.000000 -0.006000 0.006000 0.000000 -0.006000 0.006000 0.000000 -0.006000 0.006000 0.000000 -0.018000 0.006000 0.000000 -0.018000 0.006000 0.000000 -0.018000 0.009000 0.000000 -0.006000 -0.009000 0.000000 -0.006000 -0.006000 0.000000 -0.006000 -0.006000 0.000000 -0.018000 -0.006000 0.000000 -0.018000 -0.006000 0.000000 -0.012000 -0.006000 0.000000 -0.018000 -0.006000 0.000000 -0.018000 -0.006000 0.000000 -0.018000 -0.006000 0.000000 -0.018000 0.000000 0.000000 -0.018000 0.000000 0.000000 -0.018000 0.006000 0.000000 -0.015000 0.006000 0.000000 -0.006000 0.006000 0.000000 -0.006000 0.006000 0.000000 -0.006000 0.006000 0.000000 -0.006000 0.006000 0.000000 -0.018000 0.006000 0.000000 -0.018000 0.006000 0.000000 -0.018000 0.009000 0.000000 -0.006000 -0.009000 0.000000 -0.006000 -0.012000 0.000000 -0.005988 -0.006000 0.000000 -0.018012 -0.006000 0.000000 -0.018001 -0.005997 0.000000 -0.011999 -0.006000 0.000000 -0.012000 -0.006004 0.000000 -0.011998 -0.006007 0.000000 -0.018002 0.000000 0.000000 -0.012000 -0.000000 0.000000 -0.018000 -0.000000 0.000000 -0.018000 0.006000 0.000000 -0.012000 0.006000 0.000000 -0.006000 0.006000 0.000000 -0.006000 0.006000 0.000000 -0.006000 0.006000 0.000000 -0.006000 0.006000 0.000000 -0.018000 0.006000 0.000000 -0.018000 0.006000 0.000000 -0.018000 0.009000 0.000000 -0.006000 -0.015000 0.000000 -0.006000 -0.012000 0.000000 -0.005998 -0.005979 0.000000 -0.018001 -0.011929 0.000000 -0.011988 -0.011975 0.000000 -0.012013 0.000000 0.000000 -0.012007 0.000020 0.000000 -0.011993 0.000027 0.000000 -0.018000 0.000000 0.000000 -0.012000 0.000021 0.000000 -0.018000 0.000034 0.000000 -0.018000 0.000041 0.000000 -0.006000 0.006000 0.000000 -0.006000 0.006000 0.000000 -0.006000 0.006000 0.000000 -0.006000 0.006000 0.000000 -0.006000 0.006000 0.000000 -0.011998 0.006000 0.000000 -0.018001 0.006000 0.000000 -0.018001 0.015000 0.000000 -0.006000 -0.033000 0.000000 -0.006000 -0.030000 0.000000 -0.006000 -0.018020 0.000000 -0.006000 -0.006071 0.000000 -0.012000 -0.012035 0.000000 -0.012001 -0.012001 0.000000 -0.012000 -0.012031 0.000000 -0.012000 -0.012055 0.000000 -0.018000 -0.012044 0.000000 -0.012000 -0.006042 0.000000 -0.018000 -0.000078 0.000000 -0.018000 -0.000092 0.000000 -0.009000 0.006000 0.000000 -0.006000 0.006000 0.000000 -0.006000 0.006000 0.000000 -0.006000 0.006000 0.000000 -0.006000 0.006000 0.000000 -0.012000 0.006000 0.000000 -0.018000 0.006000 0.000000 -0.021000 0.009000 0.000000 -0.006000 -0.015000 0.000000 -0.006000 -0.012000 0.000000 -0.006000 -0.011981 0.000000 -0.006000 -0.011929 0.000000 -0.011988 -0.005958 0.000000 -0.012012 0.000000 0.000000 -0.012009 -0.005979 0.000000 -0.005990 0.000051 0.000000 -0.012001 0.000091 0.000000 -0.017999 0.000021 0.000000 -0.018003 0.000043 0.000000 -0.017999 0.006051 0.000000 -0.002999 0.006000 0.000000 -0.006000 0.006000 0.000000 -0.006000 0.006000 0.000000 -0.006000 0.006000 0.000000 -0.006000 0.006000 0.000000 -0.011998 0.006000 0.000000 -0.018002 0.012000 0.000000 -0.174000 0.009000 0.000000 -0.006000 -0.015000 0.000000 -0.006000 -0.012000 0.000000 -0.006000 -0.005999 0.000000 -0.006000 -0.012000 0.000000 -0.005991 -0.006000 0.000000 -0.018009 -0.006000 0.000000 -0.012001 -0.000005 0.000000 -0.006000 -0.000017 0.000000 -0.012000 -0.000048 0.000000 -0.006000 -0.000000 0.000000 -0.012000 -0.000000 0.000000 -0.012000 0.006000 0.000000 -0.003000 0.006000 0.000000 -0.006000 0.006000 0.000000 -0.006000 0.006000 0.000000 -0.006000 0.006000 0.000000 -0.006000 0.006000 0.000000 -0.012000 0.006000 0.000000 -0.018000 0.006000 0.000000 -0.213001 0.009000 0.000000 -0.006000 -0.009000 0.000000 -0.006000 -0.006000 0.000000 -0.006000 -0.006000 0.000000 -0.006000 -0.006000 0.000000 -0.006000 -0.006000 0.000000 -0.006000 -0.006000 0.000000 -0.006000 -0.006000 0.000000 -0.006000 -0.006000 0.000000 -0.012000 -0.006000 0.000000 -0.006000 0.000000 0.000000 -0.012000 0.000000 0.000000 -0.012000 0.006000 0.000000 -0.006000 0.006000 0.000000 -0.006000 0.006000 0.000000 -0.006000 0.006000 0.000000 -0.006000 0.006000 0.000000 -0.006000 0.006000 0.000000 -0.012000 0.006000 0.000000 -0.018000 0.006000 0.000000 -0.168000 0.009000 0.000000 -0.006000 -0.009000 0.000000 -0.006000 -0.006000 0.000000 -0.006000 -0.006000 0.000000 -0.006000 -0.006000 0.000000 -0.006000 -0.006000 0.000000 -0.006000 -0.006000 0.000000 -0.006000 -0.006000 0.000000 -0.006000 -0.006000 0.000000 -0.012000 -0.006000 0.000000 -0.006000 0.000000 0.000000 -0.012000 0.000000 0.000000 -0.012000 0.006000 0.000000 -0.006000 0.006000 0.000000 -0.006000 0.006000 0.000000 -0.006000 0.006000 0.000000 -0.006000 0.006000 0.000000 -0.006000 0.006000 0.000000 -0.012000 0.006000 0.000000 -0.018000 0.006000 0.000000 -0.156001 0.009000 0.000000 -0.006000 -0.009000 0.000000 -0.006000 -0.006000 0.000000 -0.006000 -0.006000 0.000000 -0.006000 -0.006000 0.000000 -0.006000 -0.006000 0.000000 -0.006000 -0.006000 0.000000 -0.006000 -0.006000 0.000000 -0.006000 -0.006000 0.000000 -0.006000 -0.006000 0.000000 -0.006000 -0.000000 0.000000 -0.012000 0.000000 0.000000 -0.012000 0.006000 0.000000 -0.006000 0.006000 0.000000 -0.006000 0.006000 0.000000 -0.006000 0.006000 0.000000 -0.006000 0.006000 0.000000 -0.006000 0.006000 0.000000 -0.012000 0.006000 0.000000 -0.012000 0.006000 0.000000 -0.180002 0.009000 0.000000 -0.006000 -0.009000 0.000000 -0.006000 -0.006000 0.000000 -0.006000 -0.006000 0.000000 -0.006000 -0.006000 0.000000 -0.006000 -0.006000 0.000000 -0.006000 -0.006000 0.000000 -0.006000 -0.006000 0.000000 -0.006000 -0.006000 0.000000 -0.006000 -0.006000 0.000000 -0.006000 0.000000 0.000000 -0.012000 0.000000 0.000000 -0.012000 0.006000 0.000000 -0.006000 0.006000 0.000000 -0.006000 0.006000 0.000000 -0.006000 0.006000 0.000000 -0.006000 0.006000 0.000000 -0.006000 0.006000 0.000000 -0.012000 0.006000 0.000000 -0.012000 0.006000 0.000000 -0.168001 0.009000 0.000000 -0.006000 -0.009000 0.000000 -0.006000 -0.006000 0.000000 -0.006000 -0.006000 0.000000 -0.006000 -0.006000 0.000000 -0.006000 -0.006000 0.000000 -0.006000 -0.006000 0.000000 -0.006000 -0.006000 0.000000 -0.006000 -0.006000 0.000000 -0.006000 -0.006000 0.000000 -0.006000 0.000000 0.000000 -0.012000 0.000000 0.000000 -0.012000 0.006000 0.000000 -0.006000 0.006000 0.000000 -0.006000 0.006000 0.000000 -0.006000 0.006000 0.000000 -0.006000 0.006000 0.000000 -0.006000 0.006000 0.000000 -0.006000 0.006000 0.000000 -0.012000 0.006000 0.000000 -0.165017 0.009000 0.000000 -0.006000 -0.009000 0.000000 -0.006000 -0.006000 0.000000 -0.006000 -0.006000 0.000000 -0.006000 -0.006000 0.000000 -0.006000 -0.006000 0.000000 -0.006000 -0.006000 0.000000 -0.006000 -0.006000 0.000000 -0.006000 -0.006000 0.000000 -0.006000 -0.006000 0.000000 -0.006000 0.000000 0.000000 -0.006000 0.000000 0.000000 -0.006000 0.006000 0.000000 -0.006000 0.006000 0.000000 -0.006000 0.006000 0.000000 -0.006000 0.006000 0.000000 -0.006000 0.006000 0.000000 -0.006000 0.006000 0.000000 -0.006000 0.006000 0.000000 -0.012000 0.006000 0.000000 -0.198057 0.009000 0.000000 -0.006000 -0.009000 0.000000 -0.006000 -0.006000 0.000000 -0.006000 -0.006000 0.000000 -0.006000 -0.006000 0.000000 -0.006000 -0.006000 0.000000 -0.006000 -0.006000 0.000000 -0.006000 -0.006000 0.000000 -0.006000 -0.006000 0.000000 -0.006000 -0.006000 0.000000 -0.006000 0.000000 0.000000 -0.006000 0.000000 0.000000 -0.006000 0.006000 0.000000 -0.006000 0.006000 0.000000 -0.006000 0.006000 0.000000 -0.006000 0.006000 0.000000 -0.006000 0.006000 0.000000 -0.006000 0.006000 0.000000 -0.006000 0.006000 0.000000 -0.012000 0.006000 0.000000 -0.189023 0.009000 0.000000 -0.006000 -0.009000 0.000000 -0.006000 -0.006000 0.000000 -0.006000 -0.006000 0.000000 -0.006000 -0.006000 0.000000 -0.006000 -0.006000 0.000000 -0.006000 -0.006000 0.000000 -0.006000 -0.006000 0.000000 -0.006000 -0.006000 0.000000 -0.006000 -0.006000 0.000000 -0.006000 0.000000 0.000000 -0.006000 0.000000 0.000000 -0.006000 0.006000 0.000000 -0.006000 0.006000 0.000000 -0.006000 0.006000 0.000000 -0.006000 0.006000 0.000000 -0.006000 0.006000 0.000000 -0.006000 0.006000 0.000000 -0.006000 0.006000 0.000000 -0.012000 0.006000 0.000000 -0.189141 0.009000 0.000000 -0.006000 -0.009000 0.000000 -0.006000 -0.006000 0.000000 -0.006000 -0.006000 0.000000 -0.006000 -0.006000 0.000000 -0.006000 -0.006000 0.000000 -0.006000 -0.006000 0.000000 -0.006000 -0.006000 0.000000 -0.006000 -0.006000 0.000000 -0.006000 -0.006000 0.000000 -0.006000 0.000000 0.000000 -0.006000 0.000000 0.000000 -0.006000 0.006000 0.000000 -0.006000 0.006000 0.000000 -0.006000 0.006000 0.000000 -0.006000 0.006000 0.000000 -0.006000 0.006000 0.000000 -0.006000 0.006000 0.000000 -0.006000 0.006000 0.000000 -0.012000 0.006000 0.000000 -0.119889 0.009000 0.000000 -0.006000 -0.009000 0.000000 -0.006000 -0.006000 0.000000 -0.006000 -0.006000 0.000000 -0.006000 -0.006000 0.000000 -0.006000 -0.006000 0.000000 -0.006000 -0.006000 0.000000 -0.006000 -0.006000 0.000000 -0.006000 -0.006000 0.000000 -0.006000 -0.006000 0.000000 -0.006000 0.000000 0.000000 -0.006000 0.000000 0.000000 -0.006000 0.006000 0.000000 -0.006000 0.006000 0.000000 -0.006000 0.006000 0.000000 -0.006000 0.006000 0.000000 -0.006000 0.006000 0.000000 -0.006000 0.006000 0.000000 -0.006000 0.006000 0.000000 -0.012000 0.006000 0.000000 -0.131896 0.009000 0.000000 -0.006000 -0.009000 0.000000 -0.006000 -0.006000 0.000000 -0.006000 -0.006000 0.000000 -0.006000 -0.006000 0.000000 -0.006000 -0.006000 0.000000 -0.006000 -0.006000 0.000000 -0.006000 -0.006000 0.000000 -0.006000 -0.006000 0.000000 -0.006000 -0.006000 0.000000 -0.006000 0.000000 0.000000 -0.006000 0.000000 0.000000 -0.006000 0.006000 0.000000 -0.006000 0.006000 0.000000 -0.006000 0.006000 0.000000 -0.006000 0.006000 0.000000 -0.006000 0.006000 0.000000 -0.006000 0.006000 0.000000 -0.006000 0.006000 0.000000 -0.006000 0.006000 0.000000 -0.138124 0.009000 0.000000 -0.006000 -0.009000 0.000000 -0.006000 -0.006000 0.000000 -0.006000 -0.006000 0.000000 -0.006000 -0.006000 0.000000 -0.006000 -0.006000 0.000000 -0.006000 -0.006000 0.000000 -0.006000 -0.006000 0.000000 -0.006000 -0.006000 0.000000 -0.006000 -0.006000 0.000000 -0.006000 0.000000 0.000000 -0.006000 0.000000 0.000000 -0.006000 0.006000 0.000000 -0.006000 0.006000 0.000000 -0.006000 0.006000 0.000000 -0.006000 0.006000 0.000000 -0.006000 0.006000 0.000000 -0.006000 0.006000 0.000000 -0.006000 0.006000 0.000000 -0.006000 0.006000 0.000000 -0.170854 0.009000 0.000000 -0.006000 -0.009000 0.000000 -0.006000 -0.006000 0.000000 -0.006000 -0.006000 0.000000 -0.006000 -0.006000 0.000000 -0.006000 -0.006000 0.000000 -0.006000 -0.006000 0.000000 -0.006000 -0.006000 0.000000 -0.006000 -0.006000 0.000000 -0.006000 -0.006000 0.000000 -0.006000 0.000000 0.000000 -0.006000 0.000000 0.000000 -0.006000 0.006000 0.000000 -0.006000 0.006000 0.000000 -0.006000 0.006000 0.000000 -0.006000 0.006000 0.000000 -0.006000 0.006000 0.000000 -0.006000 0.006000 0.000000 -0.000000 0.006000 0.000000 -0.006000 0.006000 0.000000 -0.153000 0.009000 0.000000 -0.006000 -0.009000 0.000000 -0.006000 -0.006000 0.000000 -0.006000 -0.006000 0.000000 -0.006000 -0.006000 0.000000 -0.006000 -0.006000 0.000000 -0.006000 -0.006000 0.000000 -0.006000 -0.006000 0.000000 -0.006000 -0.006000 0.000000 -0.006000 -0.006000 0.000000 -0.006000 0.000000 0.000000 -0.006000 0.000000 0.000000 -0.006000 0.006000 0.000000 -0.006000 0.006000 0.000000 -0.006000 0.006000 0.000000 -0.006000 0.006000 0.000000 -0.006000 0.006000 0.000000 -0.006000 0.006000 0.000000 -0.000000 0.006000 0.000000 -0.006000 0.006000 0.000000 -0.147092 0.009000 0.000000 -0.006000 -0.009000 0.000000 -0.006000 -0.006000 0.000000 -0.006000 -0.006000 0.000000 -0.006000 -0.006000 0.000000 -0.006000 -0.006000 0.000000 -0.006000 -0.006000 0.000000 -0.006000 -0.006000 0.000000 -0.006000 -0.006000 0.000000 -0.006000 -0.006000 0.000000 -0.006000 0.000000 0.000000 -0.006000 0.000000 0.000000 -0.006000 0.006000 0.000000 -0.006000 0.006000 0.000000 -0.006000 0.006000 0.000000 -0.006000 0.006000 0.000000 -0.006000 0.006000 0.000000 -0.006000 0.006000 0.000000 0.000000 0.006000 0.000000 0.000000 0.006000 0.000000 -0.167949 0.009000 0.000000 -0.006000 -0.009000 0.000000 -0.006000 -0.006000 0.000000 -0.006000 -0.006000 0.000000 -0.006000 -0.006000 0.000000 -0.006000 -0.006000 0.000000 -0.006000 -0.006000 0.000000 -0.006000 -0.006000 0.000000 -0.006000 -0.006000 0.000000 -0.006000 -0.006000 0.000000 -0.006000 0.000000 0.000000 -0.006000 0.000000 0.000000 -0.006000 0.006000 0.000000 -0.006000 0.006000 0.000000 -0.006000 0.006000 0.000000 -0.006000 0.006000 0.000000 -0.006000 0.006000 0.000000 -0.006000 0.006000 0.000000 0.000000 0.006000 0.000000 0.000000 0.006000 0.000000 -0.180018 0.009000 0.000000 -0.006000 -0.009000 0.000000 -0.006000 -0.006000 0.000000 -0.006000 -0.006000 0.000000 -0.006000 -0.006000 0.000000 -0.006000 -0.006000 0.000000 -0.006000 -0.006000 0.000000 -0.006000 -0.006000 0.000000 -0.006000 -0.006000 0.000000 -0.006000 -0.006000 0.000000 -0.006000 0.000000 0.000000 -0.006000 0.000000 0.000000 -0.006000 0.006000 0.000000 -0.006000 0.006000 0.000000 -0.006000 0.006000 0.000000 -0.006000 0.006000 0.000000 -0.006000 0.006000 0.000000 -0.006000 0.006000 0.000000 0.000000 0.006000 0.000000 -0.000000 0.006000 0.000000 -0.186126 0.009000 0.000000 -0.006000 -0.009000 0.000000 -0.006000 -0.006000 0.000000 -0.006000 -0.006000 0.000000 -0.006000 -0.006000 0.000000 -0.006000 -0.006000 0.000000 -0.006000 -0.006000 0.000000 -0.006000 -0.006000 0.000000 -0.006000 -0.006000 0.000000 -0.006000 -0.006000 0.000000 -0.006000 0.000000 0.000000 -0.006000 0.000000 0.000000 -0.006000 0.006000 0.000000 -0.006000 0.006000 0.000000 -0.006000 0.006000 0.000000 -0.006000 0.006000 0.000000 -0.006000 0.006000 0.000000 -0.006000 0.006000 0.000000 0.000000 0.006000 0.000000 0.000000 0.006000 0.000000 -0.209827 0.009000 0.000000 -0.006000 -0.009000 0.000000 -0.006000 -0.006000 0.000000 -0.006000 -0.006000 0.000000 -0.006000 -0.006000 0.000000 -0.006000 -0.006000 0.000000 -0.006000 -0.006000 0.000000 -0.006000 -0.006000 0.000000 -0.006000 -0.006000 0.000000 -0.006000 -0.006000 0.000000 -0.006000 0.000000 0.000000 -0.006000 0.000000 0.000000 -0.000000 0.006000 0.000000 -0.006000 0.006000 0.000000 -0.006000 0.006000 0.000000 -0.006000 0.006000 0.000000 -0.006000 0.006000 0.000000 -0.006000 0.006000 0.000000 0.000000 0.006000 0.000000 0.000000 0.006000 0.000000 -0.216352 0.009000 0.000000 -0.006000 -0.009000 0.000000 -0.006000 -0.006000 0.000000 -0.006000 -0.006000 0.000000 -0.006000 -0.006000 0.000000 0.000000 -0.006000 0.000000 -0.006000 -0.006000 0.000000 -0.006000 -0.006000 0.000000 -0.006000 -0.006000 0.000000 -0.006000 -0.006000 0.000000 -0.006000 0.000000 0.000000 -0.000000 0.000000 0.000000 0.000000 0.006000 0.000000 -0.006000 0.006000 0.000000 -0.006000 0.006000 0.000000 -0.006000 0.006000 0.000000 -0.006000 0.006000 0.000000 -0.006000 0.006000 0.000000 0.006000 0.006000 0.000000 0.006000 0.006000 0.000000 -0.227947 0.008950 0.000000 -0.006000 -0.009000 0.000000 -0.006000 -0.006000 0.000000 -0.006000 -0.006000 0.000000 -0.006000 -0.006000 0.000000 -0.000000 -0.006000 0.000000 -0.006000 -0.006000 0.000000 -0.006000 -0.006000 0.000000 -0.006000 -0.006000 0.000000 -0.006000 -0.006000 0.000000 -0.006000 -0.000000 0.000000 -0.000000 -0.000000 0.000000 -0.000000 0.006001 0.000000 0.000000 0.006009 0.000000 -0.006000 0.006000 0.000000 -0.006000 0.006000 0.000000 -0.006000 0.006000 0.000000 -0.006000 0.006000 0.000000 0.006000 0.006000 0.000000 0.006000 0.006000 0.000000 -0.237101 0.012789 0.000000 -0.006000 -0.015000 0.000000 -0.006000 -0.012000 0.000000 -0.006000 -0.005939 0.000000 -0.006000 -0.011969 0.000000 -0.000001 -0.005980 0.000000 0.000002 -0.005948 0.000000 -0.006001 0.000066 0.000000 -0.006001 0.000007 0.000000 0.000001 0.000022 0.000000 -0.000001 -0.005817 0.000000 0.000017 -0.119886 0.000000 0.000182 -0.077498 0.000000 -0.000196 -0.060007 0.000000 -0.006000 -0.054000 0.000000 -0.006000 -0.024000 0.000000 -0.006000 -0.036000 0.000000 -0.006013 -0.000006 0.000000 0.004703 -0.048024 0.000000 0.016364 -0.119667 0.000000 -0.336906 -0.130105 0.000000 -0.011734 -1.875027 0.000000 -0.011647 -1.896035 0.000000 -0.020074 -1.830096 0.000000 -0.009678 -1.917088 0.000000 -0.014587 -1.920044 0.000000 -0.012519 -1.875158 0.000000 0.004768 -1.905253 0.000000 -0.032435 -1.794084 0.000000 -0.001167 -1.848588 0.000000 -0.065914 -9.551433 0.000000 0.056022 -1.746132 0.000000 0.055113 -9.364349 0.000000 -0.134051 -1.528453 0.000000 -0.000708 -9.198357 0.000000 0.005080 -1.283355 0.000000 -0.168839 -5.002447 0.000000 0.222522 -3.594026 0.000000 -0.166249 1.291345 0.000000 -0.738867 -2.861318 0.000000 1.522747 -3.881212 0.000000 -0.011758 -1.839036 0.000000 -0.011719 -1.887053 0.000000 -0.015651 -1.950050 0.000000 -0.008021 -1.869066 0.000000 -0.012862 -1.818105 0.000000 -0.005156 -1.905124 0.000000 0.006887 -1.944240 0.000000 -0.019541 -1.818085 0.000000 -0.006670 -1.954553 0.000000 -0.051601 -9.683338 0.000000 0.020521 -1.812439 0.000000 0.058322 -9.633664 0.000000 -0.128373 -1.413380 0.000000 0.021936 -9.687040 0.000000 0.009760 -1.301629 0.000000 -0.173113 -9.386592 0.000000 0.245462 -1.211745 0.000000 0.149950 -9.145920 0.000000 -1.613096 -0.882176 0.000000 3.429508 -8.423798 0.000000 -0.011758 -1.857032 0.000000 -0.011919 -1.908033 0.000000 -0.009469 -1.806049 0.000000 -0.001969 -1.806025 0.000000 -0.010038 -1.893071 0.000000 0.001462 -1.860039 0.000000 0.002817 -1.914217 0.000000 -0.020938 -1.884610 0.000000 0.009599 -1.915376 0.000000 -0.048125 -9.584694 0.000000 0.035727 -1.779052 0.000000 0.065184 -9.649345 0.000000 -0.119836 -1.447386 0.000000 0.014300 -9.681544 0.000000 0.012512 -1.309865 0.000000 -0.152992 -9.340655 0.000000 0.243526 -1.157688 0.000000 0.217448 -9.032937 0.000000 -1.446682 -0.921116 0.000000 3.411350 -8.333756 0.000000 -0.011726 -1.854019 0.000000 -0.013036 -1.965052 0.000000 -0.007669 -1.905060 0.000000 -0.009002 -1.767079 0.000000 -0.012687 -1.911020 0.000000 -0.000458 -1.881123 0.000000 0.017732 -1.881099 0.000000 -0.018296 -1.932189 0.000000 0.014301 -1.849575 0.000000 -0.037442 -9.779085 0.000000 0.024169 -1.719217 0.000000 0.088268 -9.658446 0.000000 -0.135005 -1.485481 0.000000 0.021377 -9.627050 0.000000 -0.004138 -1.246166 0.000000 -0.158578 -9.428742 0.000000 0.212437 -1.118404 0.000000 0.185796 -9.140220 0.000000 -1.497249 -1.024975 0.000000 3.108020 -8.242057 0.000000 -0.005986 -1.845066 0.000000 -0.007079 -1.914012 0.000000 -0.006287 -1.872083 0.000000 0.014001 -1.860001 0.000000 -0.001635 -1.857043 0.000000 -0.000826 -1.860171 0.000000 0.007023 -1.902023 0.000000 -0.032860 -1.866328 0.000000 0.010639 -1.907371 0.000000 -0.027689 -9.682609 0.000000 0.063139 -1.773735 0.000000 0.087567 -9.709520 0.000000 -0.119066 -1.535460 0.000000 0.010084 -9.641918 0.000000 -0.002741 -1.265320 0.000000 -0.146830 -9.441053 0.000000 0.263651 -1.112390 0.000000 0.180719 -9.249829 0.000000 -1.497637 -0.9203