<VTKFile type="UnstructuredGrid" version="0.1" byte_order="LittleEndian">
  <UnstructuredGrid>
    <Piece NumberOfPoints="2000" NumberOfCells="0">
      <Points>
        <DataArray name="Position" type="Float32" NumberOfComponents="3" format="ascii">
-0.000849 -0.000512 0.000000 -0.000849 0.999659 0.000000 -0.000849 1.999659 0.000000 -0.000849 2.999659 0.000000 -0.001023 3.999660 0.000000 -0.001157 4.999660 0.000000 -0.001142 5.999660 0.000000 -0.001178 6.999660 0.000000 -0.000840 7.999661 0.000000 -0.001177 9.000000 0.000000 -0.000836 10.000001 0.000000 -0.000835 11.000339 0.000000 -0.000837 12.000340 0.000000 -0.000837 13.000340 0.000000 -0.000837 14.000340 0.000000 -0.000831 15.000340 0.000000 -0.000831 16.000341 0.000000 -0.000831 17.000341 0.000000 -0.000831 18.000341 0.000000 -0.000831 19.000512 0.000000 0.999656 -0.000512 0.000000 0.999656 0.999659 0.000000 0.999656 1.999659 0.000000 0.999656 2.999659 0.000000 0.999238 3.999660 0.000000 0.999020 4.999660 0.000000 0.999090 5.999660 0.000000 0.999323 6.999660 0.000000 0.999651 7.999661 0.000000 0.999324 9.000000 0.000000 0.999649 10.000001 0.000000 0.999649 11.000339 0.000000 0.999650 12.000340 0.000000 0.999650 13.000340 0.000000 0.999650 14.000340 0.000000 0.999647 15.000340 0.000000 0.999647 16.000341 0.000000 0.999647 17.000341 0.000000 0.999647 18.000341 0.000000 0.999647 19.000512 0.000000 1.999659 -0.000512 0.000000 1.999659 0.999659 0.000000 1.999659 1.999659 0.000000 1.999659 2.999659 0.000000 1.999655 3.999660 0.000000 1.999315 4.999660 0.000000 1.999308 5.999660 0.000000 1.999327 6.999660 0.000000 1.999659 7.999661 0.000000 1.999327 9.000000 0.000000 1.999659 10.000001 0.000000 1.999659 11.000339 0.000000 1.999659 12.000340 0.000000 1.999659 13.000340 0.000000 1.999659 14.000340 0.000000 1.999659 15.000340 0.000000 1.999659 16.000341 0.000000 1.999659 17.000341 0.000000 1.999659 18.000341 0.000000 1.999659 19.000512 0.000000 2.999659 -0.000512 0.000000 2.999659 0.999659 0.000000 2.999659 1.999659 0.000000 2.999659 2.999659 0.000000 2.999658 3.999660 0.000000 2.999323 4.999660 0.000000 2.999325 5.999660 0.000000 2.999331 6.999660 0.000000 2.999659 7.999661 0.000000 2.999331 9.000000 0.000000 2.999659 10.000001 0.000000 2.999659 11.000339 0.000000 2.999659 12.000340 0.000000 2.999659 13.000340 0.000000 2.999659 14.000340 0.000000 2.999659 15.000340 0.000000 2.999659 16.000341 0.000000 2.999659 17.000341 0.000000 2.999659 18.000341 0.000000 2.999659 19.000512 0.000000 3.999659 -0.000512 0.000000 3.999659 0.999659 0.000000 3.999659 1.999659 0.000000 3.999659 2.999659 0.000000 3.999658 3.999660 0.000000 3.999325 4.999660 0.000000 3.999330 5.999660 0.000000 3.999653 6.999660 0.000000 3.999659 7.999661 0.000000 3.999653 9.000000 0.000000 3.999659 10.000001 0.000000 3.999659 11.000339 0.000000 3.999659 12.000340 0.000000 3.999659 13.000340 0.000000 3.999659 14.000340 0.000000 3.999659 15.000340 0.000000 3.999659 16.000341 0.000000 3.999659 17.000341 0.000000 3.999659 18.000341 0.000000 3.999659 19.000512 0.000000 4.999660 -0.001781 0.000000 4.999660 0.998966 0.000000 4.999660 1.998987 0.000000 4.999660 2.998993 0.000000 4.999659 3.999309 0.000000 4.999326 4.999321 0.000000 4.999361 5.999330 0.000000 4.999658 6.999342 0.000000 4.999659 7.999660 0.000000 4.999658 8.999660 0.000000 4.999659 9.999660 0.000000 4.999659 11.000001 0.000000 4.999660 12.000340 0.000000 4.999660 13.000340 0.000000 4.999660 14.000340 0.000000 4.999660 15.000340 0.000000 4.999660 16.000341 0.000000 4.999660 17.000341 0.000000 4.999660 18.000341 0.000000 4.999660 19.000512 0.000000 5.999661 -0.000842 0.000000 5.999661 0.999358 0.000000 5.999661 1.999652 0.000000 5.999661 2.999659 0.000000 5.999661 3.999659 0.000000 5.999332 4.999659 0.000000 5.999366 5.999660 0.000000 5.999658 6.999961 0.000000 5.999660 7.999999 0.000000 5.999658 9.000000 0.000000 5.999660 10.000001 0.000000 5.999659 11.000339 0.000000 5.999660 12.000340 0.000000 5.999660 13.000340 0.000000 5.999660 14.000340 0.000000 5.999660 15.000340 0.000000 5.999660 16.000341 0.000000 5.999660 17.000341 0.000000 5.999660 18.000341 0.000000 5.999660 19.000512 0.000000 6.999661 -0.000512 0.000000 6.999661 0.999659 0.000000 6.999661 1.999659 0.000000 6.999661 2.999659 0.000000 6.999661 3.999660 0.000000 6.999651 4.999660 0.000000 6.999651 5.999660 0.000000 6.999659 6.999661 0.000000 6.999660 7.999661 0.000000 6.999659 8.999999 0.000000 6.999660 10.000001 0.000000 6.999660 11.000339 0.000000 6.999660 12.000340 0.000000 6.999660 13.000340 0.000000 6.999660 14.000340 0.000000 6.999660 15.000340 0.000000 6.999660 16.000341 0.000000 6.999660 17.000341 0.000000 6.999660 18.000341 0.000000 6.999660 19.000512 0.000000 7.999661 -0.000512 0.000000 7.999661 0.999659 0.000000 7.999661 1.999659 0.000000 7.999661 2.999659 0.000000 7.999662 3.999660 0.000000 7.999657 4.999660 0.000000 7.999657 5.999660 0.000000 7.999660 6.999660 0.000000 7.999661 7.999661 0.000000 7.999660 8.999999 0.000000 7.999660 10.000001 0.000000 7.999660 11.000339 0.000000 7.999660 12.000340 0.000000 7.999660 13.000340 0.000000 7.999660 14.000340 0.000000 7.999660 15.000340 0.000000 7.999660 16.000341 0.000000 7.999660 17.000341 0.000000 7.999660 18.000341 0.000000 7.999660 19.000512 0.000000 8.999661 -0.000512 0.000000 8.999661 0.999659 0.000000 8.999661 1.999659 0.000000 8.999661 2.999659 0.000000 8.999662 3.999660 0.000000 8.999658 4.999660 0.000000 8.999659 5.999660 0.000000 8.999661 6.999660 0.000000 8.999661 7.999661 0.000000 8.999661 9.000000 0.000000 8.999661 10.000001 0.000000 8.999661 11.000339 0.000000 8.999661 12.000340 0.000000 8.999661 13.000340 0.000000 8.999661 14.000340 0.000000 8.999661 15.000340 0.000000 8.999661 16.000341 0.000000 8.999661 17.000341 0.000000 8.999661 18.000341 0.000000 8.999661 19.000512 0.000000 9.999662 -0.000512 0.000000 9.999662 0.999659 0.000000 9.999662 1.999659 0.000000 9.999662 2.999659 0.000000 9.999662 3.999660 0.000000 9.999660 4.999660 0.000000 9.999660 5.999660 0.000000 9.999662 6.999660 0.000000 9.999661 7.999661 0.000000 9.999661 9.000000 0.000000 9.999661 10.000001 0.000000 9.999661 11.000339 0.000000 9.999661 12.000340 0.000000 9.999661 13.000340 0.000000 9.999661 14.000340 0.000000 9.999661 15.000340 0.000000 9.999661 16.000341 0.000000 9.999661 17.000341 0.000000 9.999661 18.000341 0.000000 9.999661 19.000512 0.000000 10.999662 -0.000512 0.000000 10.999662 0.999659 0.000000 10.999662 1.999659 0.000000 10.999662 2.999659 0.000000 10.999663 3.999660 0.000000 10.999665 4.999660 0.000000 10.999665 5.999660 0.000000 10.999663 6.999660 0.000000 10.999662 7.999661 0.000000 10.999663 9.000000 0.000000 10.999661 10.000001 0.000000 10.999661 11.000339 0.000000 10.999661 12.000340 0.000000 10.999661 13.000340 0.000000 10.999661 14.000340 0.000000 10.999661 15.000340 0.000000 10.999661 16.000341 0.000000 10.999661 17.000341 0.000000 10.999661 18.000341 0.000000 10.999661 19.000512 0.000000 11.999662 -0.000512 0.000000 11.999662 0.999659 0.000000 11.999662 1.999659 0.000000 11.999662 2.999659 0.000000 11.999663 3.999660 0.000000 11.999665 4.999660 0.000000 11.999665 5.999660 0.000000 11.999663 6.999660 0.000000 11.999662 7.999661 0.000000 11.999663 9.000000 0.000000 11.999662 10.000001 0.000000 11.999662 11.000339 0.000000 11.999662 12.000340 0.000000 11.999662 13.000340 0.000000 11.999662 14.000340 0.000000 11.999662 15.000340 0.000000 11.999662 16.000341 0.000000 11.999662 17.000341 0.000000 11.999662 18.000341 0.000000 11.999662 19.000512 0.000000 12.999663 -0.000512 0.000000 12.999663 0.999659 0.000000 12.999663 1.999659 0.000000 12.999663 2.999659 0.000000 12.999663 3.999660 0.000000 12.999665 4.999660 0.000000 12.999665 5.999660 0.000000 12.999664 6.999660 0.000000 12.999663 7.999661 0.000000 12.999664 9.000000 0.000000 12.999662 10.000001 0.000000 12.999662 11.000339 0.000000 12.999662 12.000340 0.000000 12.999662 13.000340 0.000000 12.999662 14.000340 0.000000 12.999662 15.000340 0.000000 12.999662 16.000341 0.000000 12.999662 17.000341 0.000000 12.999662 18.000341 0.000000 12.999662 19.000512 0.000000 13.999663 -0.000512 0.000000 13.999663 0.999659 0.000000 13.999663 1.999659 0.000000 13.999663 2.999659 0.000000 13.999663 3.999660 0.000000 13.999665 4.999660 0.000000 13.999665 5.999660 0.000000 13.999664 6.999660 0.000000 13.999663 7.999661 0.000000 13.999664 9.000000 0.000000 13.999662 10.000001 0.000000 13.999662 11.000339 0.000000 13.999662 12.000340 0.000000 13.999662 13.000340 0.000000 13.999662 14.000340 0.000000 13.999662 15.000340 0.000000 13.999662 16.000341 0.000000 13.999662 17.000341 0.000000 13.999662 18.000341 0.000000 13.999662 19.000512 0.000000 14.999663 -0.000512 0.000000 14.999663 0.999659 0.000000 14.999663 1.999659 0.000000 14.999663 2.999659 0.000000 14.999664 3.999660 0.000000 14.999666 4.999660 0.000000 14.999666 5.999660 0.000000 14.999664 6.999660 0.000000 14.999663 7.999661 0.000000 14.999664 9.000000 0.000000 14.999663 10.000001 0.000000 14.999663 11.000339 0.000000 14.999663 12.000340 0.000000 14.999663 13.000340 0.000000 14.999663 14.000340 0.000000 14.999663 15.000340 0.000000 14.999663 16.000341 0.000000 14.999663 17.000341 0.000000 14.999663 18.000341 0.000000 14.999663 19.000512 0.000000 15.999663 -0.000512 0.000000 15.999663 0.999659 0.000000 15.999663 1.999659 0.000000 15.999663 2.999659 0.000000 15.999664 3.999660 0.000000 15.999666 4.999660 0.000000 15.999666 5.999660 0.000000 15.999665 6.999660 0.000000 15.999663 7.999661 0.000000 15.999665 9.000000 0.000000 15.999664 10.000001 0.000000 15.999664 11.000339 0.000000 15.999664 12.000340 0.000000 15.999664 13.000340 0.000000 15.999664 14.000340 0.000000 15.999663 15.000340 0.000000 15.999663 16.000341 0.000000 15.999663 17.000341 0.000000 15.999663 18.000341 0.000000 15.999663 19.000512 0.000000 16.999664 -0.000512 0.000000 16.999664 0.999659 0.000000 16.999664 1.999659 0.000000 16.999664 2.999659 0.000000 16.999664 3.999660 0.000000 16.999666 4.999660 0.000000 16.999666 5.999660 0.000000 16.999665 6.999660 0.000000 16.999664 7.999661
[...]
      <PointData Vectors="vector">
        <DataArray type="Float32" Name="Velocity" NumberOfComponents="3" format="ascii">
-0.015000 -0.009000 0.000000 -0.015000 -0.006000 0.000000 -0.015000 -0.006000 0.000000 -0.015000 -0.006000 0.000000 -0.021000 -0.006000 0.000000 -0.021000 -0.006000 0.000000 -0.021000 -0.006000 0.000000 -0.021000 -0.006000 0.000000 -0.015000 -0.006000 0.000000 -0.021000 0.000000 0.000000 -0.015000 0.000000 0.000000 -0.015000 0.006000 0.000000 -0.015000 0.006000 0.000000 -0.015000 0.006000 0.000000 -0.015000 0.006000 0.000000 -0.015000 0.006000 0.000000 -0.015000 0.006000 0.000000 -0.015000 0.006000 0.000000 -0.015000 0.006000 0.000000 -0.015000 0.009000 0.000000 -0.006000 -0.009000 0.000000 -0.006000 -0.006000 0.000000 -0.006000 -0.006000 0.000000 -0.006000 -0.006000 0.000000 -0.012000 -0.006000 0.000000 -0.018000 -0.006000 0.000000 -0.018000 -0.006000 0.000000 -0.012000 -0.006000 0.000000 -0.006000 -0.006000 0.000000 -0.012000 0.000000 0.000000 -0.006000 0.000000 0.000000 -0.006000 0.006000 0.000000 -0.006000 0.006000 0.000000 -0.006000 0.006000 0.000000 -0.006000 0.006000 0.000000 -0.006000 0.006000 0.000000 -0.006000 0.006000 0.000000 -0.006000 0.006000 0.000000 -0.006000 0.006000 0.000000 -0.006000 0.009000 0.000000 -0.006000 -0.009000 0.000000 -0.006000 -0.006000 0.000000 -0.006000 -0.006000 0.000000 -0.006000 -0.006000 0.000000 -0.006000 -0.006000 0.000000 -0.012000 -0.006000 0.000000 -0.012000 -0.006000 0.000000 -0.012000 -0.006000 0.000000 -0.006000 -0.006000 0.000000 -0.012000 0.000000 0.000000 -0.006000 0.000000 0.000000 -0.006000 0.006000 0.000000 -0.006000 0.006000 0.000000 -0.006000 0.006000 0.000000 -0.006000 0.006000 0.000000 -0.006000 0.006000 0.000000 -0.006000 0.006000 0.000000 -0.006000 0.006000 0.000000 -0.006000 0.006000 0.000000 -0.006000 0.009000 0.000000 -0.006000 -0.009000 0.000000 -0.006000 -0.006000 0.000000 -0.006000 -0.006000 0.000000 -0.006000 -0.006000 0.000000 -0.006000 -0.006000 0.000000 -0.012000 -0.006000 0.000000 -0.012000 -0.006000 0.000000 -0.012000 -0.006000 0.000000 -0.006000 -0.006000 0.000000 -0.012000 -0.000000 0.000000 -0.006000 -0.000000 0.000000 -0.006000 0.006000 0.000000 -0.006000 0.006000 0.000000 -0.006000 0.006000 0.000000 -0.006000 0.006000 0.000000 -0.006000 0.006000 0.000000 -0.006000 0.006000 0.000000 -0.006000 0.006000 0.000000 -0.006000 0.006000 0.000000 -0.006000 0.009000 0.000000 -0.006000 -0.009000 0.000000 -0.006000 -0.006000 0.000000 -0.006000 -0.006000 0.000000 -0.006000 -0.006000 0.000000 -0.006000 -0.005999 0.000000 -0.012000 -0.006000 0.000000 -0.012000 -0.005999 0.000000 -0.006000 -0.006000 0.000000 -0.006000 -0.006000 0.000000 -0.006000 0.000000 0.000000 -0.006000 0.000000 0.000000 -0.006000 0.006000 0.000000 -0.006000 0.006000 0.000000 -0.006000 0.006000 0.000000 -0.006000 0.006000 0.000000 -0.006000 0.006000 0.000000 -0.006000 0.006000 0.000000 -0.006000 0.006000 0.000000 -0.006000 0.006000 0.000000 -0.006000 0.009000 0.000000 -0.006000 -0.033000 0.000000 -0.006000 -0.018000 0.000000 -0.006000 -0.018000 0.000000 -0.006000 -0.018000 0.000000 -0.006000 -0.012001 0.000000 -0.012001 -0.012001 0.000000 -0.012000 -0.012001 0.000000 -0.006000 -0.012000 0.000000 -0.006000 -0.006000 0.000000 -0.006000 -0.006000 0.000000 -0.006000 -0.006000 0.000000 -0.006000 -0.000000 0.000000 -0.006000 0.006000 0.000000 -0.006000 0.006000 0.000000 -0.006000 0.006000 0.000000 -0.006000 0.006000 0.000000 -0.006000 0.006000 0.000000 -0.006000 0.006000 0.000000 -0.006000 0.006000 0.000000 -0.006000 0.009000 0.000000 -0.006000 -0.015000 0.000000 -0.006000 -0.012000 0.000000 -0.006000 -0.006000 0.000000 -0.006000 -0.006000 0.000000 -0.006000 -0.005999 0.000000 -0.012000 -0.006000 0.000000 -0.012000 -0.005999 0.000000 -0.006000 -0.000000 0.000000 -0.006000 0.000000 0.000000 -0.006000 0.000000 0.000000 -0.006000 0.000000 0.000000 -0.006000 0.006000 0.000000 -0.006000 0.006000 0.000000 -0.006000 0.006000 0.000000 -0.006000 0.006000 0.000000 -0.006000 0.006000 0.000000 -0.006000 0.006000 0.000000 -0.006000 0.006000 0.000000 -0.006000 0.006000 0.000000 -0.006000 0.009000 0.000000 -0.006000 -0.009000 0.000000 -0.006000 -0.006000 0.000000 -0.006000 -0.006000 0.000000 -0.006000 -0.006000 0.000000 -0.006000 -0.006000 0.000000 -0.006000 -0.006000 0.000000 -0.006000 -0.006000 0.000000 -0.006000 -0.006000 0.000000 -0.006000 -0.006000 0.000000 -0.006000 -0.000000 0.000000 -0.006000 0.000000 0.000000 -0.006000 0.006000 0.000000 -0.006000 0.006000 0.000000 -0.006000 0.006000 0.000000 -0.006000 0.006000 0.000000 -0.006000 0.006000 0.000000 -0.006000 0.006000 0.000000 -0.006000 0.006000 0.000000 -0.006000 0.006000 0.000000 -0.006000 0.009000 0.000000 -0.006000 -0.009000 0.000000 -0.006000 -0.006000 0.000000 -0.006000 -0.006000 0.000000 -0.006000 -0.006000 0.000000 -0.006000 -0.006000 0.000000 -0.006000 -0.006000 0.000000 -0.006000 -0.006000 0.000000 -0.006000 -0.006000 0.000000 -0.006000 -0.006000 0.000000 -0.006000 0.000000 0.000000 -0.006000 0.000000 0.000000 -0.006000 0.006000 0.000000 -0.006000 0.006000 0.000000 -0.006000 0.006000 0.000000 -0.006000 0.006000 0.000000 -0.006000 0.006000 0.000000 -0.006000 0.006000 0.000000 -0.006000 0.006000 0.000000 -0.006000 0.006000 0.000000 -0.006000 0.009000 0.000000 -0.006000 -0.009000 0.000000 -0.006000 -0.006000 0.000000 -0.006000 -0.006000 0.000000 -0.006000 -0.006000 0.000000 -0.006000 -0.006000 0.000000 -0.006000 -0.006000 0.000000 -0.006000 -0.006000 0.000000 -0.006000 -0.006000 0.000000 -0.006000 -0.006000 0.000000 -0.006000 0.000000 0.000000 -0.006000 0.000000 0.000000 -0.006000 0.006000 0.000000 -0.006000 0.006000 0.000000 -0.006000 0.006000 0.000000 -0.006000 0.006000 0.000000 -0.006000 0.006000 0.000000 -0.006000 0.006000 0.000000 -0.006000 0.006000 0.000000 -0.006000 0.006000 0.000000 -0.006000 0.009000 0.000000 -0.006000 -0.009000 0.000000 -0.006000 -0.006000 0.000000 -0.006000 -0.006000 0.000000 -0.006000 -0.006000 0.000000 -0.006000 -0.006000 0.000000 -0.006000 -0.006000 0.000000 -0.006000 -0.006000 0.000000 -0.006000 -0.006000 0.000000 -0.006000 -0.006000 0.000000 -0.006000 -0.000000 0.000000 -0.006000 0.000000 0.000000 -0.006000 0.006000 0.000000 -0.006000 0.006000 0.000000 -0.006000 0.006000 0.000000 -0.006000 0.006000 0.000000 -0.006000 0.006000 0.000000 -0.006000 0.006000 0.000000 -0.006000 0.006000 0.000000 -0.006000 0.006000 0.000000 -0.006000 0.009000 0.000000 -0.006000 -0.009000 0.000000 -0.006000 -0.006000 0.000000 -0.006000 -0.006000 0.000000 -0.006000 -0.006000 0.000000 -0.006000 -0.006000 0.000000 -0.006000 -0.006000 0.000000 -0.006000 -0.006000 0.000000 -0.006000 -0.006000 0.000000 -0.006000 -0.006000 0.000000 -0.006000 0.000000 0.000000 -0.006000 0.000000 0.000000 -0.006000 0.006000 0.000000 -0.006000 0.006000 0.000000 -0.006000 0.006000 0.000000 -0.006000 0.006000 0.000000 -0.006000 0.006000 0.000000 -0.006000 0.006000 0.000000 -0.006000 0.006000 0.000000 -0.006000 0.006000 0.000000 -0.006000 0.009000 0.000000 -0.006000 -0.009000 0.000000 -0.006000 -0.006000 0.000000 -0.006000 -0.006000 0.000000 -0.006000 -0.006000 0.000000 -0.006000 -0.006000 0.000000 -0.006000 -0.006000 0.000000 -0.006000 -0.006000 0.000000 -0.006000 -0.006000 0.000000 -0.006000 -0.006000 0.000000 -0.006000 0.000000 0.000000 -0.006000 0.000000 0.000000 -0.006000 0.006000 0.000000 -0.006000 0.006000 0.000000 -0.006000 0.006000 0.000000 -0.006000 0.006000 0.000000 -0.006000 0.006000 0.000000 -0.006000 0.006000 0.000000 -0.006000 0.006000 0.000000 -0.006000 0.006000 0.000000 -0.006000 0.009000 0.000000 -0.006000 -0.009000 0.000000 -0.006000 -0.006000 0.000000 -0.006000 -0.006000 0.000000 -0.006000 -0.006000 0.000000 -0.006000 -0.006000 0.000000 -0.006000 -0.006000 0.000000 -0.006000 -0.006000 0.000000 -0.006000 -0.006000 0.000000 -0.006000 -0.006000 0.000000 -0.006000 0.000000 0.000000 -0.006000 0.000000 0.000000 -0.006000 0.006000 0.000000 -0.006000 0.006000 0.000000 -0.006000 0.006000 0.000000 -0.006000 0.006000 0.000000 -0.006000 0.006000 0.000000 -0.006000 0.006000 0.000000 -0.006000 0.006000 0.000000 -0.006000 0.006000 0.000000 -0.006000 0.009000 0.000000 -0.006000 -0.009000 0.000000 -0.006000 -0.006000 0.000000 -0.006000 -0.006000 0.000000 -0.006000 -0.006000 0.000000 -0.006000 -0.006000 0.000000 -0.006000 -0.006000 0.000000 -0.006000 -0.006000 0.000000 -0.006000 -0.006000 0.000000 -0.006000 -0.006000 0.000000 -0.006000 0.000000 0.000000 -0.006000 0.000000 0.000000 -0.006000 0.006000 0.000000 -0.006000 0.006000 0.000000 -0.006000 0.006000 0.000000 -0.006000 0.006000 0.000000 -0.006000 0.006000 0.000000 -0.006000 0.006000 0.000000 -0.006000 0.006000 0.000000 -0.006000 0.006000 0.000000 -0.006000 0.009000 0.000000 -0.006000 -0.009000 0.000000 -0.006000 -0.006000 0.000000 -0.006000 -0.006000 0.000000 -0.006000 -0.006000 0.000000 -0.006000 -0.006000 0.000000 -0.006000 -0.006000 0.000000 -0.006000 -0.006000 0.000000 -0.006000 -0.006000 0.000000 -0.006000 -0.006000 0.000000 -0.006000 0.000000 0.000000 -0.006000 0.000000 0.000000 -0.006000 0.006000 0.000000 -0.006000 0.006000 0.000000 -0.006000 0.006000 0.000000 -0.006000 0.006000 0.000000 -0.006000 0.006000 0.000000 -0.006000 0.006000 0.000000 -0.006000 0.006000 0.000000 -0.006000 0.006000 0.000000 -0.006000 0.009000 0.000000 -0.006000 -0.009000 0.000000 -0.006000 -0.006000 0.000000 -0.006000 -0.006000 0.000000 -0.006000 -0.006000 0.000000 -0.006000 -0.006000 0.000000 -0.006000 -0.006000 0.000000 -0.006000 -0.006000 0.000000 -0.006000 -0.006000 0.000000 -0.006000 -0.006000 0.000000 -0.006000 0.000000 0.000000 -0.006000 0.000000 0.000000 -0.006000 0.006000 0.000000 -0.006000 0.006000 0.000000 -0.006000 0.006000 0.000000 -0.006000 0.006000 0.000000 -0.006000 0.006000 0.000000 -0.006000 0.006000 0.000000 -0.006000 0.006000 0.000000 -0.006000 0.006000 0.000000 -0.006000 0.009000 0.000000 -0.006000 -0.009000 0.000000 -0.006000 -0.006000 0.000000 -0.006000 -0.006000 0.000000 -0.006000 -0.006000 0.000000 -0.006000 -0.006000 0.000000 -0.006000 -0.006000 0.000000 -0.006000 -0.006000 0.000000 -0.006000 -0.006000 0.000000 -0.006000 -0.006000 0.000000 -0.006000 0.000000 0.000000 -0.006000 0.000000 0.000000 -0.006000 0.006000 0.000000 -0.006000 0.006000 0.000000 -0.006000 0.006000 0.000000 -0.006000 0.006000 0.000000 -0.006000 0.006000 0.000000 -0.006000 0.006000 0.000000 -0.006000 0.006000 0.000000 -0.006000 0.006000 0.000000 -0.006000 0.009000 0.000000 -0.006000 -0.009000 0.000000 -0.006000 -0.006000 0.000000 -0.006000 -0.006000 0.000000 -0.006000 -0.006000 0.000000 -0.006000 -0.006000 0.000000 -0.006000 -0.006000 0.000000 -0.006000 -0.006000 0.000000 -0.006000 -0.006000 0.000000 -0.006000 -0.006000 0.000000 -0.006000 0.000000 0.000000 -0.006000 0.000000 0.000000 -0.006000 0.006000 0.000000 -0.006000 0.006000 0.000000 -0.006000 0.006000 0.000000 -0.006000 0.006000 0.000000 -0.006000 0.006000 0.000000 -0.006000 0.006000 0.000000 -0.006000 0.006000 0.000000 -0.006000 0.006000 0.000000 -0.006000 0.009000 0.000000 -0.006000 -0.009000 0.000000 -0.006000 -0.006000 0.000000 -0.006000 -0.006000 0.000000 -0.006000 -0.006000 0.000000 -0.006000 -0.006000 0.000000 -0.006000 -0.006000 0.000000 -0.006000 -0.006000 0.000000 -0.006000 -0.006000 0.000000 -0.006000 -0.006000 0.000000 -0.006000 0.000000 0.000000 -0.006000 0.000000 0.000000 -0.006000 0.006000 0.000000 -0.006000 0.006000 0.000000 -0.006000 0.006000 0.000000 -0.006000 0.006000 0.000000 -0.006000 0.006000 0.000000 -0.006000 0.006000 0.000000 -0.006000 0.006000 0.000000 -0.006000 0.006000 0.000000 -0.006000 0.009000 0.000000 -0.006000 -0.009000 0.000000 -0.006000 -0.006000 0.000000 -0.006000 -0.006000 0.000000 -0.006000 -0.006000 0.000000 -0.006000 -0.006000 0.000000 -0.006000 -0.006000 0.000000 -0.006000 -0.006000 0.000000 -0.006000 -0.006000 0.000000 -0.006000 -0.006000 0.000000 -0.006000 0.000000 0.000000 -0.006000 0.000000 0.000000 -0.006000 0.006000 0.000000 -0.006000 0.006000 0.000000 -0.006000 0.006000 0.000000 -0.006000 0.006000 0.000000 -0.006000 0.006000 0.000000 -0.006000 0.006000 0.000000 -0.006000 0.006000 0.000000 -0.006000 0.006000 0.000000 -0.006000 0.009000 0.000000 -0.006000 -0.009000 0.000000 -0.006000 -0.006000 0.000000 -0.006000 -0.006000 0.000000 -0.006000 -0.006000 0.000000 -0.006000 -0.006000 0.000000 -0.006000 -0.006000 0.000000 -0.006000 -0.006000 0.000000 -0.006000 -0.006000 0.000000 -0.006000 -0.006000 0.000000 -0.006000 0.000000 0.000000 -0.006000 0.000000 0.000000 -0.006000 0.006000 0.000000 -0.006000 0.006000 0.000000 -0.006000 0.006000 0.000000 -0.006000 0.006000 0.000000 -0.006000 0.006000 0.000000 -0.006000 0.006000 0.000000 -0.006000 0.006000 0.000000 -0.006000 0.006000 0.000000 -0.006000 0.009000 0.000000 -0.006000 -0.009000 0.000000 -0.006000 -0.006000 0.000000 -0.006000 -0.006000 0.000000 -0.006000 -0.006000 0.000000 -0.006000 -0.006000 0.000000 -0.006000 -0.006000 0.000000 -0.006000 -0.006000 0.000000 -0.006000 -0.006000 0.000000 -0.006000 -0.006000 0.000000 -0.006000 0.000000 0.000000 -0.006000 0.000000 0.000000 -0.006000 0.006000 0.000000 -0.006000 0.006000 0.000000 -0.006000 0.006000 0.000000 -0.006000 0.006000 0.000000 -0.006000 0.006000 0.000000 -0.006000 0.006000 0.000000 -0.006000 0.006000 0.000000 -0.006000 0.006000 0.000000 -0.006000 0.009000 0.000000 -0.006000 -0.009000 0.000000 -0.006000 -0.006000 0.000000 -0.006000 -0.006000 0.000000 -0.006000 -0.006000 0.000000 -0.006000 -0.006000 0.000000 -0.006000 -0.006000 0.000000 -0.006000 -0.006000 0.000000 -0.006000 -0.006000 0.000000 -0.006000 -0.006000 0.000000 -0.006000 0.000000 0.000000 -0.006000 0.000000 0.000000 -0.006000 0.006000 0.000000 -0.006000 0.006000 0.000000 -0.006000 0.006000 0.000000 -0.006000 0.006000 0.000000 -0.006000 0.006000 0.000000 -0.006000 0.006000 0.000000 -0.006000 0.006000 0.000000 -0.006000 0.006000 0.000000 -0.006000 0.009000 0.000000 -0.006000 -0.009000 0.000000 -0.006000 -0.006000 0.000000 -0.006000 -0.006000 0.000000 -0.006000 -0.006000 0.000000 -0.006000 -0.006000 0.000000 -0.006000 -0.006000 0.000000 -0.006000 -0.006000 0.000000 -0.006000 -0.006000 0.000000 -0.006000 -0.006000 0.000000 -0.006000 0.000000 0.000000 -0.006000 0.000000 0.000000 -0.006000 0.006000 0.000000 -0.006000 0.006000 0.000000 -0.006000 0.006000 0.000000 -0.006000 0.006000 0.000000 -0.006000 0.006000 0.000000 -0.006000 0.006000 0.000000 -0.006000 0.006000 0.000000 -0.006000 0.006000 0.000000 -0.006000 0.009000 0.000000 -0.006000 -0.009000 0.000000 -0.006000 -0.006000 0.000000 -0.006000 -0.006000 0.000000 -0.006000 -0.006000 0.000000 -0.006000 -0.006000 0.000000 -0.006000 -0.006000 0.000000 -0.006000 -0.006000 0.000000 -0.006000 -0.006000 0.000000 -0.006000 -0.006000 0.000000 -0.006000 0.000000 0.000000 -0.006000 0.000000 0.000000 -0.006000 0.006000 0.000000 -0.006000 0.006000 0.000000 -0.006000 0.006000 0.000000 -0.006000 0.006000 0.000000 -0.006000 0.006000 0.000000 -0.006000 0.006000 0.000000 -0.006000 0.006000 0.000000 -0.006000 0.006000 0.000000 -0.006000 0.009000 0.000000 -0.006000 -0.009000 0.000000 -0.006000 -0.006000 0.000000 -0.006000 -0.006000 0.000000 -0.006000 -0.006000 0.000000 -0.006000 -0.006000 0.000000 -0.006000 -0.006000 0.000000 -0.006000 -0.006000 0.000000 -0.006000 -0.006000 0.000000 -0.006000 -0.006000 0.000000 -0.006000 0.000000 0.000000 -0.006000 0.000000 0.000000 -0.006000 0.006000 0.000000 -0.006000 0.006000 0.000000 -0.006000 0.006000 0.000000 -0.006000 0.006000 0.000000 -0.006000 0.006000 0.000000 -0.006000 0.006000 0.000000 -0.006000 0.006000 0.000000 -0.006000 0.006000 0.000000 -0.006000 0.009000 0.000000 -0.006000 -0.009000 0.000000 -0.006000 -0.006000 0.000000 -0.006000 -0.006000 0.000000 -0.006000 -0.006000 0.000000 -0.006000 -0.006000 0.000000 -0.006000 -0.006000 0.000000 -0.006000 -0.006000 0.000000 -0.006000 -0.006000 0.000000 -0.006000 -0.006000 0.000000 -0.006000 0.000000 0.000000 -0.006000 0.000000 0.000000 -0.006000 0.006000 0.000000 -0.006000 0.006000 0.000000 -0.006000 0.006000 0.000000 -0.006000 0.006000 0.000000 -0.006000 0.006000 0.000000 -0.006000 0.006000 0.000000 -0.006000 0.006000 0.000000 -0.006000 0.006000 0.000000 -0.006000 0.009000 0.000000 -0.006000 -0.009000 0.000000 -0.006000 -0.006000 0.000000 -0.006000 -0.006000 0.000000 -0.006000 -0.006000 0.000000 -0.006000 -0.006000 0.000000 -0.006000 -0.006000 0.000000 -0.006000 -0.006000 0.000000 -0.006000 -0.006000 0.000000 -0.006000 -0.006000 0.000000 -0.006000 0.000000 0.000000 -0.006000 0.000000 0.000000 -0.006000 0.006000 0.000000 -0.006000 0.006000 0.000000 -0.006000 0.006000 0.000000 -0.006000 0.006000 0.000000 -0.006000 0.006000 0.000000 -0.006000 0.006000 0.000000 -0.006000 0.006000 0.000000 -0.006000 0.006000 0.000000 -0.006000 0.009000 0.000000 -0.006000 -0.009000 0.000000 -0.006000 -0.006000 0.000000 -0.006000 -0.006000 0.000000 -0.006000 -0.006000 0.000000 -0.006000 -0.006000 0.000000 -0.006000 -0.006000 0.000000 -0.006000 -0.006000 0.000000 -0.006000 -0.006000 0.000000 -0.006000 -0.006000 0.000000 -0.006000 0.000000 0.000000 -0.006000 0.000000 0.000000 -0.006000 0.006000 0.000000 -0.006000 0.006000 0.000000 -0.006000 0.006000 0.000000 -0.006000 0.006000 0.000000 -0.006000 0.006000 0.000000 -0.006000 0.006000 0.000000 -0.006000 0.006000 0.000000 -0.006000 0.006000 0.000000 -0.006000 0.009000 0.000000 -0.006000 -0.009000 0.000000 -0.006000 -0.006000 0.000000 -0.006000 -0.006000 0.000000 -0.006000 -0.006000 0.000000 -0.006000 -0.006000 0.000000 -0.006000 -0.006000 0.000000 -0.006000 -0.006000 0.000000 -0.006000 -0.006000 0.000000 -0.006000 -0.006000 0.000000 -0.006000 0.000000 0.000000 -0.006000 0.000000 0.000000 -0.006000 0.006000 0.000000 -0.006000 0.006000 0.000000 -0.006000 0.006000 0.000000 -0.006000 0.006000 0.000000 -0.006000 0.006000 0.000000 -0.006000 0.006000 0.000000 -0.006000 0.006000 0.000000 -0.006000 0.006000 0.000000 -0.006000 0.009000 0.000000 -0.006000 -0.009000 0.000000 -0.006000 -0.006000 0.000000 -0.006000 -0.006000 0.000000 -0.006000 -0.006000 0.000000 -0.006000 -0.006000 0.000000 -0.006000 -0.006000 0.000000 -0.006000 -0.006000 0.000000 -0.006000 -0.006000 0.000000 -0.006000 -0.006000 0.000000 -0.006000 0.000000 0.000000 -0.006000 0.000000 0.000000 -0.006000 0.006000 0.000000 -0.006000 0.006000 0.000000 -0.006000 0.006000 0.000000 -0.006000 0.006000 0.000000 -0.006000 0.006000 0.000000 -0.006000 0.006000 0.000000 -0.006000 0.006000 0.000000 -0.006000 0.006000 0.000000 -0.006000 0.009000 0.000000 -0.006000 -0.009000 0.000000 -0.006000 -0.006000 0.000000 -0.006000 -0.006000 0.000000 -0.006000 -0.006000 0.000000 -0.006000 -0.006000 0.000000 -0.006000 -0.006000 0.000000 -0.006000 -0.006000 0.000000 -0.006000 -0.006000 0.000000 -0.006000 -0.006000 0.000000 -0.006000 0.000000 0.000000 -0.006000 0.000000 0.000000 -0.006000 0.006000 0.000000 -0.006000 0.006000 0.000000 -0.006000 0.006000 0.000000 -0.006000 0.006000 0.000000 -0.006000 0.006000 0.000000 -0.006000 0.006000 0.000000 -0.006000 0.006000 0.000000 -0.006000 0.006000 0.000000 -0.006000 0.009000 0.000000 -0.006000 -0.009000 0.000000 -0.006000 -0.006000 0.000000 -0.006000 -0.006000 0.000000 -0.006000 -0.006000 0.000000 -0.006000 -0.006000 0.000000 0.000000 -0.006000 0.000000 0.000000 -0.006000 0.000000 -0.006000 -0.006000 0.000000 -0.006000 -0.006000 0.000000 -0.006000 0.000000 0.000000 -0.006000 0.000000 0.000000 -0.006000 0.006000 0.000000 -0.006000 0.006000 0.000000 -0.006000 0.006000 0.000000 -0.006000 0.006000 0.000000 -0.006000 0.006000 0.000000 -0.006000 0.006000 0.000000 -0.006000 0.006000 0.000000 -0.006000 0.006000 0.000000 -0.006000 0.009000 0.000000 -0.006000 -0.009000 0.000000 -0.006000 -0.006000 0.000000 -0.006000 -0.006000 0.000000 -0.006000 -0.006000 0.000000 -0.006000 -0.006000 0.000000 0.000000 -0.006000 0.000000 0.000000 -0.006000 0.000000 -0.006000 -0.006000 0.000000 -0.006000 -0.006000 0.000000 -0.006000 0.000000 0.000000 -0.006000 0.000000 0.000000 -0.006000 0.006000 0.000000 -0.006000 0.006000 0.000000 -0.006000 0.006000 0.000000 -0.006000 0.006000 0.000000 -0.006000 0.006000 0.000000 -0.006000 0.006000 0.000000 -0.006000 0.006000 0.000000 -0.006000 0.006